LAMMPS (24 Mar 2022)
OMP_NUM_THREADS environment is not set. Defaulting to 1 thread. (src/comm.cpp:98)
  using 1 OpenMP thread(s) per MPI task
# Read restart
read_restart ${read_res}
read_restart equpmf1.15.res
Reading restart file ...
  restart file = 24 Mar 2022, LAMMPS = 24 Mar 2022
  restoring atom style atomic from restart
  orthogonal box = (954.69617 954.69617 954.69617) to (2045.3038 2045.3038 2045.3038)
  1 by 1 by 1 MPI processor grid
  restoring pair style table from restart
  1000 atoms
  read_restart CPU = 0.002 seconds

# Settings

pair_style table spline 9941

pair_coeff 1 1 N20.txt DE_GNP 75.6
pair_coeff 2 2 N100.txt DE_GNP 115.92
WARNING: 3 of 9941 force values in table DE_GNP are inconsistent with -dE/dr.
WARNING:  Should only be flagged at inflection points (src/pair_table.cpp:465)
pair_coeff 1 2 mixed_potential.txt DE_GNP 95.66
WARNING: 1562 of 9941 force values in table DE_GNP are inconsistent with -dE/dr.
WARNING:  Should only be flagged at inflection points (src/pair_table.cpp:465)

#Neigh_list Calc Frequency

neigh_modify delay 0 every 1 check yes

# Saving Frequency (50 frames)

variable ts_save equal floor(${steps_equ}*0.01)
variable ts_save equal floor(5000*0.01)

# Dump
dump 1 all custom ${ts_save} ./equilibration/trajectory/trajectory_${usic}_${trial}.equ.custom type x y z ix iy iz
dump 1 all custom 50 ./equilibration/trajectory/trajectory_${usic}_${trial}.equ.custom type x y z ix iy iz
dump 1 all custom 50 ./equilibration/trajectory/trajectory_16_${trial}.equ.custom type x y z ix iy iz
dump 1 all custom 50 ./equilibration/trajectory/trajectory_16_1.equ.custom type x y z ix iy iz
dump_modify 1 first no sort id
dump 2 all cfg 200 ./equilibration/trajectory/ovito/dumpgen.tens_*.cfg mass type xs ys zs fx fy fz

# thermo_style
thermo_style custom step temp press pe ke etotal lx ly lz xlo xhi ylo yhi zlo zhi vol density dt time cpu tpcpu spcpu cpuremain

# run info
timestep ${ts}
timestep 0.5
thermo ${ts_save}
thermo 50

# fix

fix 1 all momentum 1000 linear 1 1 1 angular
variable T equal ${temp}
variable T equal 300
#fix 2 all nvt temp ${T} 370000 100.0

#run 100000

#unfix 2

#fix 3 all npt temp 370000 370000 $(100.0*dt) iso 1.0 1.0 $(1000.0*dt)

#run 200000

#unfix 3

#fix 4 all nvt temp 370000 ${T} 100.0

#run 200000

#unfix 4

fix 5 all npt temp ${T} ${T} $(100.0*dt) iso 1.0 1.0 $(1000.0*dt)
fix 5 all npt temp 300 ${T} $(100.0*dt) iso 1.0 1.0 $(1000.0*dt)
fix 5 all npt temp 300 300 $(100.0*dt) iso 1.0 1.0 $(1000.0*dt)
fix 5 all npt temp 300 300 50 iso 1.0 1.0 $(1000.0*dt)
fix 5 all npt temp 300 300 50 iso 1.0 1.0 500
Resetting global fix info from restart file:
  fix style: npt, fix ID: 5

run 500000
  generated 0 of 1 mixed pair_coeff terms from geometric mixing rule
All restart file global fix info was re-assigned
Neighbor list info ...
  update every 1 steps, delay 0 steps, check yes
  max neighbors/atom: 2000, page size: 100000
  master list distance cutoff = 117.92
  ghost atom cutoff = 117.92
  binsize = 58.96, bins = 19 19 19
  1 neighbor lists, perpetual/occasional/extra = 1 0 0
  (1) pair table, perpetual
      attributes: half, newton on
      pair build: half/bin/atomonly/newton
      stencil: half/bin/3d
      bin: standard
Per MPI rank memory allocation (min/avg/max) = 5.802 | 5.802 | 5.802 Mbytes
   Step          Temp          Press          PotEng         KinEng         TotEng           Lx             Ly             Lz            Xlo            Xhi            Ylo            Yhi            Zlo            Zhi           Volume        Density           Dt            Time           CPU           T/CPU          S/CPU         CPULeft    
   6505000   325.91437      0.61072847    -7287647.8      970.51734     -7286677.3      1090.6077      1090.6077      1090.6077      954.69617      2045.3038      954.69617      2045.3038      954.69617      2045.3038      1.2971961e+09  0.41212976     0.5            3252500        0              0              0              0            
   6505050   325.94197      1.1773676     -7287729.1      970.59952     -7286758.5      1090.5333      1090.5333      1090.5333      954.73333      2045.2667      954.73333      2045.2667      954.73333      2045.2667      1.2969309e+09  0.41221403     0.5            3252525        0.009166       2727.1736      5453.7522      91.680831    
   6505100   325.94348      1.1516858     -7287813.1      970.60403     -7286842.5      1090.521       1090.521       1090.521       954.73949      2045.2605      954.73949      2045.2605      954.73949      2045.2605      1.296887e+09   0.41222799     0.5            3252550        0.017828       2886.5027      5773.0054      89.13217     
   6505150   325.91892      0.62833423    -7287899.4      970.53088     -7286928.9      1090.5608      1090.5608      1090.5608      954.71959      2045.2804      954.71959      2045.2804      954.71959      2045.2804      1.2970289e+09  0.41218288     0.5            3252575        0.026673       2826.1361      5650.356       88.903321    
   6505200   325.96005      1.3357527     -7287979.6      970.65338     -7287008.9      1090.4716      1090.4716      1090.4716      954.76419      2045.2358      954.76419      2045.2358      954.76419      2045.2358      1.2967107e+09  0.41228402     0.5            3252600        0.041191       1721.8817      3444.4751      102.94381    
   6505250   325.92008      0.92479276    -7288065.8      970.53433     -7287095.3      1090.4996      1090.4996      1090.4996      954.7502       2045.2498      954.7502       2045.2498      954.7502       2045.2498      1.2968106e+09  0.41225228     0.5            3252625        0.053879       1970.521       3941.042       107.71012    
   6505300   325.90466      0.76978253    -7288150.3      970.48844     -7287179.8      1090.5007      1090.5007      1090.5007      954.74965      2045.2503      954.74965      2045.2503      954.74965      2045.2503      1.2968145e+09  0.41225104     0.5            3252650        0.061988       3082.9942      6165.9884      103.25634    
   6505350   325.9272       1.3774395     -7288230.5      970.55555     -7287260        1090.4218      1090.4218      1090.4218      954.7891       2045.2109      954.7891       2045.2109      954.7891       2045.2109      1.296533e+09   0.41234054     0.5            3252675        0.069679       3250.5526      6501.1052      99.474605    
   6505400   325.87663      0.63934072    -7288318.2      970.40496     -7287347.8      1090.484       1090.484       1090.484       954.75801      2045.242       954.75801      2045.242       954.75801      2045.242       1.2967548e+09  0.41227        0.5            3252700        0.083934       1753.6476      3507.2952      104.83731    
   6505450   325.8977       0.93189914    -7288400.7      970.46769     -7287430.2      1090.4381      1090.4381      1090.4381      954.78093      2045.2191      954.78093      2045.2191      954.78093      2045.2191      1.2965913e+09  0.41232199     0.5            3252725        0.09817        1756.1113      3512.2225      108.98405    
   6505500   325.95352      1.3384204     -7295859.4      970.63393     -7294888.8      1090.3694      1090.3694      1090.3694      954.81528      2045.1847      954.81528      2045.1847      954.81528      2045.1847      1.2963463e+09  0.41239993     0.5            3252750        0.12803        837.2685       1674.537       127.90497    
   6505550   325.93884      0.90097581    -7295945.8      970.5902      -7294975.2      1090.4002      1090.4002      1090.4002      954.79992      2045.2001      954.79992      2045.2001      954.79992      2045.2001      1.2964558e+09  0.41236509     0.5            3252775        0.139839       2117.2087      4234.4173      126.98834    
   6505600   325.94324      0.79621174    -7296030.1      970.60332     -7295059.5      1090.396       1090.396       1090.396       954.80201      2045.198       954.80201      2045.198       954.80201      2045.198       1.2964409e+09  0.41236983     0.5            3252800        0.153734       1799.0789      3598.1577      127.9596     
   6505650   325.97143      1.3653528     -7296110.5      970.68726     -7295139.8      1090.3212      1090.3212      1090.3212      954.83939      2045.1606      954.83939      2045.1606      954.83939      2045.1606      1.2961742e+09  0.41245467     0.5            3252825        0.161868       3073.5186      6147.0371      124.35428    
   6505700   325.91869      0.72115721    -7296197.8      970.5302      -7295227.3      1090.3736      1090.3736      1090.3736      954.81322      2045.1868      954.81322      2045.1868      954.81322      2045.1868      1.2963609e+09  0.41239527     0.5            3252850        0.169346       3343.587       6687.174       120.79351    
   6505750   325.92737      1.0086085     -7296280.2      970.55605     -7295309.6      1090.3283      1090.3283      1090.3283      954.83587      2045.1641      954.83587      2045.1641      954.83587      2045.1641      1.2961994e+09  0.41244666     0.5            3252875        0.178152       2838.6511      5677.3021      118.59184    
   6505800   325.92106      1.2602512     -7296362.3      970.53725     -7295391.7      1090.2866      1090.2866      1090.2866      954.85669      2045.1433      954.85669      2045.1433      954.85669      2045.1433      1.2960509e+09  0.41249393     0.5            3252900        0.19096        1951.9051      3903.8101      119.16091    
   6505850   325.86727      0.64471074    -7296449        970.37709     -7295478.6      1090.3359      1090.3359      1090.3359      954.83207      2045.1679      954.83207      2045.1679      954.83207      2045.1679      1.2962265e+09  0.41243804     0.5            3252925        0.200748       2553.887       5108.2959      117.88807    
   6505900   325.89037      1.22818       -7296529.6      970.44586     -7295559.2      1090.2592      1090.2592      1090.2592      954.87042      2045.1296      954.87042      2045.1296      954.87042      2045.1296      1.295953e+09   0.41252509     0.5            3252950        0.208672       3155.3704      6309.9445      115.72188    
   6505950   325.85803      1.028631      -7296614.3      970.34958     -7295644        1090.2646      1090.2646      1090.2646      954.86771      2045.1323      954.86771      2045.1323      954.86771      2045.1323      1.2959723e+09  0.41251895     0.5            3252975        0.216184       3328.0085      6656.017       113.56644    
   6506000   325.65174      0.74191892    -7296699.2      969.73529     -7295729.5      1090.2791      1090.2791      1090.2791      954.86047      2045.1395      954.86047      2045.1395      954.86047      2045.1395      1.2960239e+09  0.41250251     0.5            3253000        0.229795       1836.7497      3673.7693      114.6687     
   6506050   325.70079      1.339832      -7296779.2      969.88135     -7295809.3      1090.2001      1090.2001      1090.2001      954.89993      2045.1001      954.89993      2045.1001      954.89993      2045.1001      1.2957425e+09  0.41259209     0.5            3253025        0.237397       3288.6083      6576.3514      112.80974    
   6506100   325.69888      0.75097225    -7296865.9      969.87564     -7295896.1      1090.2463      1090.2463      1090.2463      954.87684      2045.1232      954.87684      2045.1232      954.87684      2045.1232      1.2959072e+09  0.41253966     0.5            3253050        0.247462       2483.8549      4967.7099      112.23663    
   6506150   325.75876      1.047596      -7296947.9      970.05396     -7295977.8      1090.1988      1090.1988      1090.1988      954.90061      2045.0994      954.90061      2045.0994      954.90061      2045.0994      1.2957376e+09  0.41259365     0.5            3253075        0.255122       3263.7076      6527.4151      110.66835    
   6506200   325.79199      1.1633205     -7297030.6      970.15292     -7296060.4      1090.1701      1090.1701      1090.1701      954.91494      2045.0851      954.91494      2045.0851      954.91494      2045.0851      1.2956354e+09  0.41262619     0.5            3253100        0.267409       2034.6708      4069.6728      111.15384    
   6506250   325.79654      0.70354553    -7297116.3      970.16645     -7296146.1      1090.2024      1090.2024      1090.2024      954.89882      2045.1012      954.89882      2045.1012      954.89882      2045.1012      1.2957504e+09  0.41258957     0.5            3253125        0.276263       2823.5826      5647.1651      110.22973    
   6506300   325.86466      1.3106101     -7297196.4      970.3693      -7296226        1090.1211      1090.1211      1090.1211      954.93943      2045.0606      954.93943      2045.0606      954.93943      2045.0606      1.2954608e+09  0.41268181     0.5            3253150        0.283824       3306.4409      6612.0074      108.8804     
   6506350   325.86003      0.78455512    -7297282.9      970.35553     -7296312.5      1090.1603      1090.1603      1090.1603      954.91987      2045.0801      954.91987      2045.0801      954.91987      2045.0801      1.2956003e+09  0.41263737     0.5            3253175        0.291831       3122.268       6244.536       107.79483    
   6506400   325.91696      1.0538962     -7297365        970.52505     -7296394.5      1090.1146      1090.1146      1090.1146      954.9427       2045.0573      954.9427       2045.0573      954.9427       2045.0573      1.2954375e+09  0.41268924     0.5            3253200        0.304335       1999.3602      3998.7204      108.38745    
   6506450   325.95237      1.1171324     -7297448.2      970.63049     -7296477.5      1090.0907      1090.0907      1090.0907      954.95463      2045.0454      954.95463      2045.0454      954.95463      2045.0454      1.2953525e+09  0.41271633     0.5            3253225        0.312467       3074.2745      6148.5489      107.43546    
   6506500   325.9737       0.75486499    -7297533.6      970.69401     -7296562.9      1090.1122      1090.1122      1090.1122      954.94391      2045.0561      954.94391      2045.0561      954.94391      2045.0561      1.2954289e+09  0.41269197     0.5            3253250        0.320182       3240.4407      6480.8814      106.40782    
   6506550   326.0484       1.2947362     -7297614.2      970.91647     -7296643.3      1090.0373      1090.0373      1090.0373      954.98134      2045.0187      954.98134      2045.0187      954.98134      2045.0187      1.295162e+09   0.41277701     0.5            3253275        0.329285       2746.3474      5492.6947      105.89233    
   6506600   326.05573      0.74529504    -7297700.9      970.93829     -7296730        1090.0786      1090.0786      1090.0786      954.96068      2045.0393      954.96068      2045.0393      954.96068      2045.0393      1.2953093e+09  0.41273008     0.5            3253300        0.342098       1950.9911      3901.6777      106.56477    
   6506650   326.12942      1.1378154     -7297782.7      971.15773     -7296811.5      1090.0195      1090.0195      1090.0195      954.99027      2045.0097      954.99027      2045.0097      954.99027      2045.0097      1.2950984e+09  0.4127973      0.5            3253325        0.352385       2430.488       4861.4487      106.43155    
   6506700   326.16111      1.0210178     -7297867.1      971.25209     -7296895.9      1090.0146      1090.0146      1090.0146      954.9927       2045.0073      954.9927       2045.0073      954.9927       2045.0073      1.2950811e+09  0.41280282     0.5            3253350        0.360193       3202.2544      6404.5088      105.57951    
   6506750   326.1973       0.82732699    -7297952        971.35986     -7296980.6      1090.018       1090.018       1090.018       954.99102      2045.009       954.99102      2045.009       954.99102      2045.009       1.295093e+09   0.41279901     0.5            3253375        0.367831       3272.6797      6546.2163      104.72731    
   6506800   326.26329      1.2635378     -7298033.4      971.55638     -7297061.8      1089.9545      1089.9545      1089.9545      955.02276      2044.9772      955.02276      2044.9772      955.02276      2044.9772      1.2948667e+09  0.41287115     0.5            3253400        0.39879        807.51962      1614.9871      110.37704    
   6506850   326.268        0.74722045    -7298120.1      971.57039     -7297148.6      1089.9922      1089.9922      1089.9922      955.00392      2044.9961      955.00392      2044.9961      955.00392      2044.9961      1.2950011e+09  0.41282831     0.5            3253425        0.406812       3116.4298      6232.8596      109.54292    
   6506900   326.32895      1.1337958     -7298202.2      971.7519      -7297230.5      1089.9344      1089.9344      1089.9344      955.03282      2044.9672      955.03282      2044.9672      955.03282      2044.9672      1.2947951e+09  0.412894       0.5            3253450        0.417636       2309.4688      4618.9376      109.48762    
   6506950   326.34649      1.0498167     -7298286.8      971.80413     -7297314.9      1089.9265      1089.9265      1089.9265      955.03674      2044.9633      955.03674      2044.9633      955.03674      2044.9633      1.2947671e+09  0.41290292     0.5            3253475        0.426563       2800.8066      5602.2409      108.94908    
   6507000   326.15754      0.78908915    -7298372.1      971.24147     -7297400.9      1089.9374      1089.9374      1089.9374      955.03131      2044.9687      955.03131      2044.9687      955.03131      2044.9687      1.2948058e+09  0.41289057     0.5            3253500        0.438769       2048.173       4096.0105      109.25423    
   6507050   326.2227       1.2531612     -7298453.6      971.43549     -7297482.2      1089.8724      1089.8724      1089.8724      955.06382      2044.9362      955.06382      2044.9362      955.06382      2044.9362      1.2945741e+09  0.41296447     0.5            3253525        0.448702       2516.863       5033.726       108.9913     
   6507100   326.24584      0.86561352    -7298539.9      971.50439     -7297568.4      1089.8968      1089.8968      1089.8968      955.05159      2044.9484      955.05159      2044.9484      955.05159      2044.9484      1.2946613e+09  0.41293667     0.5            3253550        0.456369       3260.7278      6521.4556      108.20339    
   6507150   326.28755      0.9196707     -7298623.7      971.6286      -7297652        1089.8753      1089.8753      1089.8753      955.06237      2044.9376      955.06237      2044.9376      955.06237      2044.9376      1.2945844e+09  0.41296118     0.5            3253575        0.464264       3166.5611      6333.1222      107.50457    
   6507200   326.32005      1.2350162     -7298706        971.72538     -7297734.2      1089.8268      1089.8268      1089.8268      955.08662      2044.9134      955.08662      2044.9134      955.08662      2044.9134      1.2944116e+09  0.41301632     0.5            3253600        0.477424       1899.5517      3798.8148      108.02939    
   6507250   326.29278      0.80173824    -7298792.3      971.64419     -7297820.7      1089.8562      1089.8562      1089.8562      955.0719       2044.9281      955.0719       2044.9281      955.0719       2044.9281      1.2945165e+09  0.41298285     0.5            3253625        0.485119       3249.2852      6499.4151      107.31955    
   6507300   326.29661      0.99214683    -7298875.5      971.65559     -7297903.8      1089.821       1089.821       1089.821       955.0895       2044.9105      955.0895       2044.9105      955.0895       2044.9105      1.2943911e+09  0.41302286     0.5            3253650        0.493255       3073.1407      6146.2815      106.73653    
   6507350   326.28658      1.2041228     -7298958.3      971.62571     -7297986.6      1089.7837      1089.7837      1089.7837      955.10816      2044.8918      955.10816      2044.8918      955.10816      2044.8918      1.2942581e+09  0.4130653      0.5            3253675        0.500981       3235.4083      6471.6542      106.09114    
   6507400   326.23532      0.78636087    -7299044.4      971.47307     -7298072.9      1089.8116      1089.8116      1089.8116      955.09422      2044.9058      955.09422      2044.9058      955.09422      2044.9058      1.2943575e+09  0.41303359     0.5            3253700        0.513457       2003.8474      4007.6948      106.45717    
   6507450   326.22475      1.0304381     -7299127.2      971.44159     -7298155.7      1089.7709      1089.7709      1089.7709      955.11453      2044.8855      955.11453      2044.8855      955.11453      2044.8855      1.2942127e+09  0.41307978     0.5            3253725        0.521124       3260.7278      6520.6051      105.83112    
   6507500   326.20052      1.1751609     -7299210.2      971.36944     -7298238.8      1089.7405      1089.7405      1089.7405      955.12973      2044.8703      955.12973      2044.8703      955.12973      2044.8703      1.2941044e+09  0.41311436     0.5            3253750        0.530986       2534.9828      5070.4797      105.66661    
   6507550   326.14764      0.77859699    -7299296.1      971.21197     -7298324.9      1089.7661      1089.7661      1089.7661      955.11693      2044.8831      955.11693      2044.8831      955.11693      2044.8831      1.2941956e+09  0.41308523     0.5            3253775        0.539307       3004.0856      6007.4492      105.20794    
   6507600   326.14216      1.0789714     -7299378.4      971.19566     -7298407.2      1089.7194      1089.7194      1089.7194      955.14031      2044.8597      955.14031      2044.8597      955.14031      2044.8597      1.2940291e+09  0.41313841     0.5            3253800        0.552485       1897.2452      3794.7784      105.69501    
   6507650   326.1183       1.1215553     -7299461.8      971.12461     -7298490.7      1089.6992      1089.6992      1089.6992      955.15041      2044.8496      955.15041      2044.8496      955.15041      2044.8496      1.2939571e+09  0.41316138     0.5            3253825        0.560572       3091.3812      6181.998       105.20829    
   6507700   326.08067      0.77854307    -7299547.3      971.01256     -7298576.3      1089.719       1089.719       1089.719       955.14049      2044.8595      955.14049      2044.8595      955.14049      2044.8595      1.2940278e+09  0.41313883     0.5            3253850        0.568534       3139.9146      6279.8292      104.71591    
   6507750   326.09296      1.160048      -7299629        971.04915     -7298658        1089.6631      1089.6631      1089.6631      955.16843      2044.8316      955.16843      2044.8316      955.16843      2044.8316      1.2938287e+09  0.4132024      0.5            3253875        0.576766       3036.9291      6073.8581      104.29032    
   6507800   326.07248      1.0024613     -7299713.6      970.98815     -7298742.6      1089.6634      1089.6634      1089.6634      955.16831      2044.8317      955.16831      2044.8317      955.16831      2044.8317      1.2938295e+09  0.41320212     0.5            3253900        0.588729       2089.4275      4178.855       104.54252    
   6507850   326.06472      0.84470829    -7299798.1      970.96506     -7298827.1      1089.6635      1089.6635      1089.6635      955.16823      2044.8318      955.16823      2044.8318      955.16823      2044.8318      1.2938301e+09  0.41320194     0.5            3253925        0.598866       2466.6996      4933.8859      104.46569    
   6507900   326.09069      1.2156244     -7299879.6      971.0424      -7298908.6      1089.608       1089.608       1089.608       955.19602      2044.804       955.19602      2044.804       955.19602      2044.804       1.2936321e+09  0.41326518     0.5            3253950        0.606451       3295.9789      6591.9578      103.95441    
   6507950   326.07436      0.83424936    -7299965.5      970.99375     -7298994.5      1089.6315      1089.6315      1089.6315      955.18427      2044.8157      955.18427      2044.8157      955.18427      2044.8157      1.2937159e+09  0.41323843     0.5            3253975        0.614937       2946.0288      5891.3633      103.61218    
   6508000   325.90859      1.041499      -7300048.1      970.50012     -7299077.6      1089.5928      1089.5928      1089.5928      955.2036       2044.7964      955.2036       2044.7964      955.2036       2044.7964      1.2935782e+09  0.41328242     0.5            3254000        0.628087       1901.1407      3802.2814      104.05358    
   6508050   325.94765      1.0965824     -7300131.4      970.61645     -7299160.8      1089.5701      1089.5701      1089.5701      955.21495      2044.785       955.21495      2044.785       955.21495      2044.785       1.2934973e+09  0.41330825     0.5            3254025        0.635981       3166.9622      6333.9245      103.62353    
   6508100   325.99457      0.80801545    -7300216.6      970.75616     -7299245.9      1089.5837      1089.5837      1089.5837      955.20813      2044.7919      955.20813      2044.7919      955.20813      2044.7919      1.2935459e+09  0.41329273     0.5            3254050        0.643859       3173.3943      6346.7885      103.20469    
   6508150   326.07542      1.2088771     -7300298.1      970.99691     -7299327.1      1089.5244      1089.5244      1089.5244      955.23778      2044.7622      955.23778      2044.7622      955.23778      2044.7622      1.2933347e+09  0.41336022     0.5            3254075        0.652884       2770.0831      5540.1662      102.97997    
   6508200   326.09659      0.85916596    -7300383.8      971.05997     -7299412.8      1089.5446      1089.5446      1089.5446      955.22769      2044.7723      955.22769      2044.7723      955.22769      2044.7723      1.2934066e+09  0.41333725     0.5            3254100        0.665274       2017.5934      4035.5125      103.28425    
   6508250   326.14588      1.0118224     -7300466.8      971.20674     -7299495.6      1089.5117      1089.5117      1089.5117      955.24414      2044.7559      955.24414      2044.7559      955.24414      2044.7559      1.2932894e+09  0.41337468     0.5            3254125        0.673239       3139.1261      6277.4639      102.9023     
   6508300   326.17082      0.99745773    -7300550.7      971.28102     -7299579.5      1089.4966      1089.4966      1089.4966      955.25169      2044.7483      955.25169      2044.7483      955.25169      2044.7483      1.2932357e+09  0.41339188     0.5            3254150        0.726182       472.19704      944.39408      109.302      
   6508350   326.21851      1.2014524     -7302528        971.42302     -7301556.6      1089.4541      1089.4541      1089.4541      955.27295      2044.7271      955.27295      2044.7271      955.27295      2044.7271      1.2930842e+09  0.41344028     0.5            3254175        0.738391       2047.6698      4095.3395      109.46981    
   6508400   326.22068      0.86622269    -7302613.9      971.42948     -7301642.4      1089.473       1089.473       1089.473       955.26348      2044.7365      955.26348      2044.7365      955.26348      2044.7365      1.2931517e+09  0.41341872     0.5            3254200        0.751724       1875.1875      3750.375       109.79636    
   6508450   326.24637      0.9586663     -7302697.3      971.50599     -7301725.8      1089.4472      1089.4472      1089.4472      955.2764       2044.7236      955.2764       2044.7236      955.2764       2044.7236      1.2930596e+09  0.41344814     0.5            3254225        0.759916       3051.7578      6103.5156      109.37327    
   6508500   326.26441      1.1992415     -7302779.9      971.55971     -7301808.3      1089.4061      1089.4061      1089.4061      955.29697      2044.703       955.29697      2044.703       955.29697      2044.703       1.2929132e+09  0.41349498     0.5            3254250        0.767568       3267.1197      6534.2394      108.88543    
   6508550   326.23631      0.76832764    -7302866.1      971.47602     -7301894.6      1089.4352      1089.4352      1089.4352      955.2824       2044.7176      955.2824       2044.7176      955.2824       2044.7176      1.293017e+09   0.41346179     0.5            3254275        0.775983       2970.8853      5941.7706      108.51768    
   6508600   326.2513       1.1005577     -7302948.4      971.52066     -7301976.9      1089.3849      1089.3849      1089.3849      955.30757      2044.6924      955.30757      2044.6924      955.30757      2044.6924      1.2928377e+09  0.41351912     0.5            3254300        0.787949       2089.2529      4178.855       108.64969    
   6508650   326.23425      1.1115887     -7303032.2      971.4699      -7302060.8      1089.3681      1089.3681      1089.3681      955.31595      2044.6841      955.31595      2044.6841      955.31595      2044.6841      1.292778e+09   0.41353821     0.5            3254325        0.799205       2221.0377      4442.0753      108.6812     
   6508700   326.19674      0.75425021    -7303117.9      971.35819     -7302146.5      1089.3897      1089.3897      1089.3897      955.30516      2044.6948      955.30516      2044.6948      955.30516      2044.6948      1.2928548e+09  0.41351364     0.5            3254350        0.808345       2735.2298      5469.8611      108.42787    
   6508750   326.20476      1.1892019     -7303199.5      971.38206     -7302228.1      1089.329       1089.329       1089.329       955.33552      2044.6645      955.33552      2044.6645      955.33552      2044.6645      1.2926387e+09  0.41358278     0.5            3254375        0.816719       2985.4311      5970.8622      108.07941    
   6508800   326.16911      1.0226729     -7303284.3      971.27591     -7302313        1089.3307      1089.3307      1089.3307      955.33463      2044.6654      955.33463      2044.6654      955.33463      2044.6654      1.292645e+09   0.41358077     0.5            3254400        0.830038       1877.0178      3754.0356      108.38588    
   6508850   326.14322      0.87536849    -7303368.9      971.19883     -7302397.7      1089.3305      1089.3305      1089.3305      955.33476      2044.6652      955.33476      2044.6652      955.33476      2044.6652      1.2926441e+09  0.41358106     0.5            3254425        0.837606       3303.3827      6606.7653      107.94278    
   6508900   326.1336       1.0979388     -7303451.5      971.17017     -7302480.3      1089.2918      1089.2918      1089.2918      955.3541       2044.6459      955.3541       2044.6459      955.3541       2044.6459      1.2925064e+09  0.41362511     0.5            3254450        0.846102       2942.2149      5885.1224      107.62889    
   6508950   326.12165      1.0759955     -7305429.9      971.13457     -7304458.8      1089.2739      1089.2739      1089.2739      955.36304      2044.637       955.36304      2044.637       955.36304      2044.637       1.2924427e+09  0.41364549     0.5            3254475        0.853663       3307.3158      6613.7566      107.2052     
   6509000   325.93415      1.1901678     -7312890.3      970.57625     -7311919.8      1089.2356      1089.2356      1089.2356      955.38222      2044.6178      955.38222      2044.6178      955.38222      2044.6178      1.2923062e+09  0.4136892      0.5            3254500        0.86876        1655.7388      3311.4776      107.72674    
   6509050   325.96449      0.88647772    -7312975.8      970.66658     -7312005.2      1089.2514      1089.2514      1089.2514      955.37432      2044.6257      955.37432      2044.6257      955.37432      2044.6257      1.2923625e+09  0.41367118     0.5            3254525        0.878637       2531.6456      5063.2911      107.59556    
   6509100   326.04881      1.210911      -7313057.8      970.91767     -7312086.9      1089.2018      1089.2018      1089.2018      955.39911      2044.6009      955.39911      2044.6009      955.39911      2044.6009      1.292186e+09   0.41372768     0.5            3254550        0.886363       3235.4083      6470.8166      107.20705    
   6509150   326.07424      0.84496959    -7313143.6      970.99341     -7312172.6      1089.224       1089.224       1089.224       955.388        2044.612       955.388        2044.612       955.388        2044.612       1.2922651e+09  0.41370236     0.5            3254575        0.894339       3134.4032      6268.8064      106.85759    
   6509200   326.11959      0.98220117    -7313226.8      971.12846     -7312255.7      1089.1938      1089.1938      1089.1938      955.4031       2044.5969      955.4031       2044.5969      955.4031       2044.5969      1.2921576e+09  0.41373676     0.5            3254600        0.907673       1874.9063      3749.8125      107.14899    
   6509250   326.15062      1.187997      -7313309.4      971.22086     -7312338.2      1089.1564      1089.1564      1089.1564      955.42179      2044.5782      955.42179      2044.5782      955.42179      2044.5782      1.2920246e+09  0.41377937     0.5            3254625        0.915936       3025.5355      6051.071       106.84159    
   6509300   326.13839      0.76454132    -7313395.5      971.18445     -7312424.3      1089.1846      1089.1846      1089.1846      955.40769      2044.5923      955.40769      2044.5923      955.40769      2044.5923      1.2921249e+09  0.41374723     0.5            3254650        0.923767       3192.848       6385.696       106.49123    
   6509350   326.1711       1.1206331     -7313477.5      971.28184     -7312506.2      1089.1315      1089.1315      1089.1315      955.43423      2044.5658      955.43423      2044.5658      955.43423      2044.5658      1.291936e+09   0.41380772     0.5            3254675        0.932344       2914.4323      5828.8645      106.23397    
   6509400   326.16842      1.0865913     -7313561.5      971.27386     -7312590.2      1089.1192      1089.1192      1089.1192      955.44042      2044.5596      955.44042      2044.5596      955.44042      2044.5596      1.291892e+09   0.41382184     0.5            3254700        0.945858       1849.9334      3699.8668      106.53823    
   6509450   326.1511       0.74969784    -7313647        971.22228     -7312675.8      1089.1384      1089.1384      1089.1384      955.43081      2044.5692      955.43081      2044.5692      955.43081      2044.5692      1.2919603e+09  0.41379994     0.5            3254725        0.953558       3246.3316      6493.5065      106.18812    
   6509500   326.18084      1.2558115     -7313728.1      971.31086     -7312756.8      1089.0696      1089.0696      1089.0696      955.46519      2044.5348      955.46519      2044.5348      955.46519      2044.5348      1.2917157e+09  0.41387831     0.5            3254750        0.961564       3123.0481      6246.0962      105.8791     
   6509550   326.1513       0.91304482    -7313813.9      971.22288     -7312842.7      1089.0895      1089.0895      1089.0895      955.45525      2044.5447      955.45525      2044.5447      955.45525      2044.5447      1.2917864e+09  0.41385566     0.5            3254775        0.969315       3225.3903      6450.7805      105.54903    
   6509600   326.14566      0.84326928    -7313898        971.20608     -7312926.8      1089.0809      1089.0809      1089.0809      955.45956      2044.5404      955.45956      2044.5404      955.45956      2044.5404      1.2917557e+09  0.41386548     0.5            3254800        1.003955       721.70901      1443.3763      108.12202    
   6509650   326.16407      1.3155129     -7313979.1      971.26091     -7313007.9      1089.0157      1089.0157      1089.0157      955.49215      2044.5078      955.49215      2044.5078      955.49215      2044.5078      1.2915238e+09  0.4139398      0.5            3254825        1.016744       1954.8049      3909.6098      108.31089    
   6509700   326.11646      0.72652803    -7314066.1      971.11912     -7313095        1089.0613      1089.0613      1089.0613      955.46936      2044.5306      955.46936      2044.5306      955.46936      2044.5306      1.291686e+09   0.41388782     0.5            3254850        1.027732       2275.2093      4550.8328      108.30567    
   6509750   326.13093      1.0425523     -7314148.4      971.16222     -7313177.2      1089.0124      1089.0124      1089.0124      955.49381      2044.5062      955.49381      2044.5062      955.49381      2044.5062      1.291512e+09   0.41394357     0.5            3254875        1.035651       3157.363       6313.9285      107.98045    
   6509800   326.12655      1.236551      -7314231        971.14917     -7313259.8      1088.9762      1088.9762      1088.9762      955.51192      2044.4881      955.51192      2044.4881      955.51192      2044.4881      1.2913832e+09  0.41398489     0.5            3254900        1.04924        1839.5879      3679.4466      108.2468     
   6509850   326.08018      0.61609706    -7314317.7      971.0111      -7313346.7      1089.025       1089.025       1089.025       955.48751      2044.5125      955.48751      2044.5125      955.48751      2044.5125      1.2915569e+09  0.41392921     0.5            3254925        1.057124       3171.3815      6341.9584      107.92494    
   6509900   326.11592      1.2984315     -7314398        971.11753     -7313426.9      1088.9376      1088.9376      1088.9376      955.53122      2044.4688      955.53122      2044.4688      955.53122      2044.4688      1.2912459e+09  0.4140289      0.5            3254950        1.065494       2986.501       5972.2886      107.65879    
   6509950   326.0814       0.97774898    -7314483.7      971.01472     -7313512.7      1088.955       1088.955       1088.955       955.52251      2044.4775      955.52251      2044.4775      955.52251      2044.4775      1.2913078e+09  0.41400904     0.5            3254975        1.073544       3105.5901      6211.9518      107.36554    
   6510000   325.85531      0.71359184    -7314568.6      970.34148     -7313598.2      1088.9664      1088.9664      1088.9664      955.51678      2044.4832      955.51678      2044.4832      955.51678      2044.4832      1.2913486e+09  0.41399598     0.5            3255000        1.086849       1878.9929      3758.2682      107.59825    
   6510050   325.91861      1.4499745     -7314648        970.52995     -7313677.4      1088.8729      1088.8729      1088.8729      955.56355      2044.4365      955.56355      2044.4365      955.56355      2044.4365      1.2910158e+09  0.41410267     0.5            3255025        1.098148       2212.781       4425.1704      107.62957    
   6510100   325.90962      0.62460387    -7314736.1      970.50319     -7313765.6      1088.9431      1088.9431      1088.9431      955.52843      2044.4716      955.52843      2044.4716      955.52843      2044.4716      1.2912657e+09  0.41402254     0.5            3255050        1.105818       3259.0275      6518.9048      107.30791    
   6510150   325.98689      1.0998286     -7314817.6      970.7333      -7313846.8      1088.8768      1088.8768      1088.8768      955.56162      2044.4384      955.56162      2044.4384      955.56162      2044.4384      1.2910296e+09  0.41409827     0.5            3255075        1.113906       3091.3812      6181.998       107.0325     
   6510200   326.0188       1.2386843     -7314900.4      970.82831     -7313929.5      1088.8455      1088.8455      1088.8455      955.57724      2044.4228      955.57724      2044.4228      955.57724      2044.4228      1.2909184e+09  0.41413392     0.5            3255100        1.131805       1396.7261      2793.4521      107.69579    
   6510250   326.00639      0.52188693    -7314987.3      970.79135     -7314016.5      1088.9043      1088.9043      1088.9043      955.54785      2044.4522      955.54785      2044.4522      955.54785      2044.4522      1.2911275e+09  0.41406685     0.5            3255125        1.144504       1968.5039      3937.0079      107.85616    
   6510300   326.09269      1.5143403     -7315065.6      971.04835     -7314094.6      1088.7828      1088.7828      1088.7828      955.60862      2044.3914      955.60862      2044.3914      955.60862      2044.3914      1.2906952e+09  0.41420554     0.5            3255150        1.153603       2747.5547      5495.1094      107.67706    
   6510350   326.05633      0.65910998    -7315154.3      970.94006     -7314183.3      1088.8562      1088.8562      1088.8562      955.5719       2044.4281      955.5719       2044.4281      955.5719       2044.4281      1.2909564e+09  0.41412173     0.5            3255175        1.16168        3095.5919      6191.1838      107.40673    
   6510400   326.11417      1.0328327     -7315236.3      971.11231     -7314265.2      1088.7997      1088.7997      1088.7997      955.60017      2044.3998      955.60017      2044.3998      955.60017      2044.3998      1.2907554e+09  0.41418624     0.5            3255200        1.173942       2038.8191      4077.6382      107.52457    
   6510450   326.14585      1.2951051     -7315318.4      971.20666     -7314347.2      1088.7547      1088.7547      1088.7547      955.62264      2044.3774      955.62264      2044.3774      955.62264      2044.3774      1.2905955e+09  0.41423754     0.5            3255225        1.183152       2714.4408      5428.8817      107.36308    
   6510500   326.12798      0.47076398    -7315406.1      971.15342     -7314434.9      1088.8249      1088.8249      1088.8249      955.58756      2044.4124      955.58756      2044.4124      955.58756      2044.4124      1.290845e+09   0.41415747     0.5            3255250        1.195588       2010.1311      4020.2621      107.49441    
   6510550   326.22597      1.5510745     -7317378.5      971.44524     -7316407.1      1088.6884      1088.6884      1088.6884      955.65582      2044.3442      955.65582      2044.3442      955.65582      2044.3442      1.2903596e+09  0.41431329     0.5            3255275        1.203337       3226.2227      6452.4455      107.20558    
   6510600   326.1811       0.39970916    -7315573.9      971.31162     -7314602.6      1088.7979      1088.7979      1088.7979      955.60104      2044.399       955.60104      2044.399       955.60104      2044.399       1.2907491e+09  0.41418824     0.5            3255300        1.217093       1817.5209      3634.7776      107.45219    
   6510650   326.29495      1.5557603     -7317546.3      971.65063     -7316574.7      1088.6533      1088.6533      1088.6533      955.67334      2044.3267      955.67334      2044.3267      955.67334      2044.3267      1.290235e+09   0.41435329     0.5            3255325        1.228126       2265.7241      4531.4483      107.45603    
   6510700   326.25498      0.42494525    -7315741.6      971.53161     -7314770.1      1088.7606      1088.7606      1088.7606      955.61969      2044.3803      955.61969      2044.3803      955.61969      2044.3803      1.2906165e+09  0.4142308      0.5            3255350        1.240647       1996.8051      3993.9292      107.58821    
   6510750   326.3707       1.615068      -7317713.8      971.87622     -7316741.9      1088.6126      1088.6126      1088.6126      955.69369      2044.3063      955.69369      2044.3063      955.69369      2044.3063      1.2900903e+09  0.41439976     0.5            3255375        1.254698       1779.1062      3557.9592      107.84991    
   6510800   326.32935      0.44588508    -7317804.4      971.75308     -7316832.6      1088.7192      1088.7192      1088.7192      955.64038      2044.3596      955.64038      2044.3596      955.64038      2044.3596      1.2904693e+09  0.41427805     0.5            3255400        1.267813       1906.3596      3813.01        108.02658    
   6510850   326.45046      1.6166699     -7325259.1      972.11371     -7324287        1088.5674      1088.5674      1088.5674      955.71631      2044.2837      955.71631      2044.2837      955.71631      2044.2837      1.2899294e+09  0.41445145     0.5            3255425        1.280088       2036.494       4073.3198      108.12931    
   6510900   326.40475      0.45047149    -7317972.6      971.97759     -7317000.7      1088.6845      1088.6845      1088.6845      955.65774      2044.3423      955.65774      2044.3423      955.65774      2044.3423      1.2903459e+09  0.41431767     0.5            3255450        1.287809       3237.9225      6475.0065      107.84871    
   6510950   326.46172      1.0140652     -7325432        972.14727     -7324459.8      1088.5973      1088.5973      1088.5973      955.70135      2044.2986      955.70135      2044.2986      955.70135      2044.2986      1.2900358e+09  0.41441728     0.5            3255475        1.298944       2245.1729      4490.3458      107.85618    
   6511000   326.33774      1.6415067     -7327406.5      971.77808     -7326434.7      1088.5102      1088.5102      1088.5102      955.74492      2044.2551      955.74492      2044.2551      955.74492      2044.2551      1.289726e+09   0.41451682     0.5            3255500        1.311488       1992.9847      3985.9694      107.97934    
   6511050   326.2924       0.35389491    -7318225.4      971.64305     -7317253.7      1088.6441      1088.6441      1088.6441      955.67794      2044.3221      955.67794      2044.3221      955.67794      2044.3221      1.2902023e+09  0.4143638      0.5            3255525        1.322454       2279.7738      4559.9635      107.97143    
   6511100   326.40948      1.2655738     -7327578.1      971.9917      -7326606.1      1088.5169      1088.5169      1088.5169      955.74155      2044.2584      955.74155      2044.2584      955.74155      2044.2584      1.2897499e+09  0.41450912     0.5            3255550        1.331869       2655.3372      5310.6745      107.83788    
   6511150   326.44702      0.78154849    -7327665.1      972.10348     -7326693        1088.5511      1088.5511      1088.5511      955.72444      2044.2756      955.72444      2044.2756      955.72444      2044.2756      1.2898716e+09  0.41447003     0.5            3255575        1.33956        3250.5526      6500.26        107.56792    
   6511200   326.5308       1.6616967     -7327743.9      972.35295     -7326771.6      1088.4439      1088.4439      1088.4439      955.77804      2044.222       955.77804      2044.222       955.77804      2044.222       1.2894906e+09  0.4145925      0.5            3255600        1.36188        1120.0215      2239.6417      108.46803    
   6511250   326.4672       0.340351      -7327835.1      972.16356     -7326863        1088.5647      1088.5647      1088.5647      955.71763      2044.2824      955.71763      2044.2824      955.71763      2044.2824      1.28992e+09    0.41445446     0.5            3255625        1.373052       2238.1379      4477.8793      108.47127    
   6511300   326.5256       1.0787809     -7327916.9      972.33748     -7326944.6      1088.4728      1088.4728      1088.4728      955.7636       2044.2364      955.7636       2044.2364      955.7636       2044.2364      1.2895932e+09  0.4145595      0.5            3255650        1.38898        1569.563       3139.1261      108.84768    
   6511350   326.53832      1.5954763     -7327997.8      972.37537     -7327025.4      1088.4044      1088.4044      1088.4044      955.79778      2044.2022      955.79778      2044.2022      955.79778      2044.2022      1.2893503e+09  0.4146376      0.5            3255675        1.404039       1660.0266      3320.0531      109.15037    
   6511400   326.44548      0.3441995     -7328088.4      972.0989      -7327116.3      1088.5171      1088.5171      1088.5171      955.74145      2044.2586      955.74145      2044.2586      955.74145      2044.2586      1.2897507e+09  0.41450887     0.5            3255700        1.418277       1755.9879      3511.9758      109.38477    
   6511450   326.47023      0.96794763    -7328170.7      972.17259     -7327198.5      1088.4381      1088.4381      1088.4381      955.78097      2044.219       955.78097      2044.219       955.78097      2044.219       1.2894698e+09  0.41459919     0.5            3255725        1.430648       2020.6919      4041.3838      109.47253    
   6511500   326.47834      1.6316667     -7330145.2      972.19674     -7329173        1088.3512      1088.3512      1088.3512      955.8244       2044.1756      955.8244       2044.1756      955.8244       2044.1756      1.2891611e+09  0.41469846     0.5            3255750        1.441937       2214.5451      4428.698       109.47667    
   6511550   326.37209      0.31400666    -7328341.4      971.88036     -7327369.5      1088.4742      1088.4742      1088.4742      955.76291      2044.2371      955.76291      2044.2371      955.76291      2044.2371      1.2895981e+09  0.41455792     0.5            3255775        1.456703       1693.1934      3386.6161      109.74215    
   6511600   326.42067      1.2773328     -7330316.6      972.02502     -7329344.6      1088.3573      1088.3573      1088.3573      955.82136      2044.1786      955.82136      2044.1786      955.82136      2044.1786      1.2891827e+09  0.41469151     0.5            3255800        1.469729       1919.0911      3838.1822      109.87353    
   6511650   326.3893       1.2783857     -7330400.9      971.93159     -7329429        1088.3423      1088.3423      1088.3423      955.82884      2044.1712      955.82884      2044.1712      955.82884      2044.1712      1.2891295e+09  0.4147086      0.5            3255825        1.478742       2774.079       5548.158       109.70502    
   6511700   326.31914      0.32195089    -7330489        971.72268     -7329517.2      1088.4237      1088.4237      1088.4237      955.78815      2044.2119      955.78815      2044.2119      955.78815      2044.2119      1.2894187e+09  0.41461559     0.5            3255850        1.486889       3068.6142      6137.2284      109.47505    
   6511750   326.34889      1.0578301     -7330570.7      971.81127     -7329598.9      1088.3348      1088.3348      1088.3348      955.83259      2044.1674      955.83259      2044.1674      955.83259      2044.1674      1.2891029e+09  0.41471718     0.5            3255875        1.496074       2721.5328      5443.0655      109.32437    
   6511800   326.35232      1.6401522     -7330651        971.82148     -7329679.2      1088.2617      1088.2617      1088.2617      955.86917      2044.1308      955.86917      2044.1308      955.86917      2044.1308      1.2888429e+09  0.41480084     0.5            3255900        1.508572       2000.3201      4000.6401      109.41598    
   6511850   326.26808      0.73246767    -7330740.6      971.57062     -7329769        1088.3377      1088.3377      1088.3377      955.83115      2044.1689      955.83115      2044.1689      955.83115      2044.1689      1.2891131e+09  0.41471389     0.5            3255925        1.516773       3048.4087      6096.8175      109.19673    
   6511900   326.23334      0.45913293    -7330825.5      971.46717     -7329854        1088.3502      1088.3502      1088.3502      955.82492      2044.1751      955.82492      2044.1751      955.82492      2044.1751      1.2891574e+09  0.41469964     0.5            3255950        1.524228       3353.4541      6706.9081      108.92722    
   6511950   326.26566      1.4034767     -7330905.2      971.56343     -7329933.7      1088.2409      1088.2409      1088.2409      955.87957      2044.1204      955.87957      2044.1204      955.87957      2044.1204      1.288769e+09   0.41482461     0.5            3255975        1.533163       2798.2986      5596.5973      108.76648    
   6512000   326.03974      1.4250231     -7330989.2      970.89068     -7330018.3      1088.2238      1088.2238      1088.2238      955.88808      2044.1119      955.88808      2044.1119      955.88808      2044.1119      1.2887086e+09  0.41484408     0.5            3256000        1.54665        1853.6368      3707.2737      108.92849    
   6512050   325.98578      0.52071274    -7331077.5      970.72998     -7330106.8      1088.2992      1088.2992      1088.2992      955.85042      2044.1496      955.85042      2044.1496      955.85042      2044.1496      1.2889761e+09  0.41475796     0.5            3256025        1.554256       3286.4467      6572.8934      108.67681    
   6512100   326.02391      0.67630388    -7331161        970.84352     -7330190.2      1088.2687      1088.2687      1088.2687      955.86566      2044.1343      955.86566      2044.1343      955.86566      2044.1343      1.2888678e+09  0.41479281     0.5            3256050        1.561934       3256.0563      6512.1125      108.43356    
   6512150   326.08678      1.5073072     -7331240.4      971.03075     -7330269.4      1088.1711      1088.1711      1088.1711      955.91443      2044.0856      955.91443      2044.0856      955.91443      2044.0856      1.2885213e+09  0.41490435     0.5            3256075        1.569795       3180.257       6360.5139      108.20629    
   6512200   326.07089      1.2600883     -7331326        970.98343     -7330355        1088.1809      1088.1809      1088.1809      955.90956      2044.0904      955.90956      2044.0904      955.90956      2044.0904      1.2885559e+09  0.41489322     0.5            3256100        1.583042       1887.2197      3774.4395      108.35057    
   6512250   326.02572      0.49848642    -7331413.2      970.84891     -7330442.4      1088.2416      1088.2416      1088.2416      955.87919      2044.1208      955.87919      2044.1208      955.87919      2044.1208      1.2887717e+09  0.41482375     0.5            3256125        1.590719       3256.4804      6513.8093      108.11418    
   6512300   326.03979      0.75552664    -7331496.3      970.89081     -7330525.4      1088.2013      1088.2013      1088.2013      955.89936      2044.1006      955.89936      2044.1006      955.89936      2044.1006      1.2886284e+09  0.41486989     0.5            3256150        1.600064       2675.5137      5350.4548      107.99343    
   6512350   326.06897      1.4715682     -7331576.2      970.97772     -7330605.2      1088.1158      1088.1158      1088.1158      955.9421       2044.0579      955.9421       2044.0579      955.9421       2044.0579      1.2883247e+09  0.41496767     0.5            3256175        1.6078         3229.9742      6459.9483      107.76668    
   6512400   326.03239      1.1777844     -7331661.9      970.86877     -7330691.1      1088.1301      1088.1301      1088.1301      955.93493      2044.0651      955.93493      2044.0651      955.93493      2044.0651      1.2883757e+09  0.41495126     0.5            3256200        1.619856       2074.3445      4148.689       107.83001    
   6512450   325.98471      0.51021298    -7331748.5      970.7268      -7330777.8      1088.1813      1088.1813      1088.1813      955.90936      2044.0906      955.90936      2044.0906      955.90936      2044.0906      1.2885574e+09  0.41489275     0.5            3256225        1.62938        2624.9475      5249.895       107.72511    
   6512500   326.02146      1.2931433     -7332197.1      970.83625     -7331226.2      1088.0865      1088.0865      1088.0865      955.95676      2044.0432      955.95676      2044.0432      955.95676      2044.0432      1.2882206e+09  0.41500121     0.5            3256250        1.63707        3250.5526      6501.1052      107.50106    
   6512550   325.99421      1.2070336     -7332281.4      970.75509     -7331310.6      1088.0804      1088.0804      1088.0804      955.95981      2044.0402      955.95981      2044.0402      955.95981      2044.0402      1.288199e+09   0.41500818     0.5            3256275        1.646111       2765.1808      5530.3617      107.36806    
   6512600   325.94379      0.55504309    -7332368        970.60496     -7331397.4      1088.1299      1088.1299      1088.1299      955.93507      2044.0649      955.93507      2044.0649      955.93507      2044.0649      1.2883747e+09  0.41495158     0.5            3256300        1.658537       2012.0724      4024.1449      107.45587    
   6512650   325.94771      0.78985675    -7332450.9      970.61662     -7331480.3      1088.0922      1088.0922      1088.0922      955.95389      2044.0461      955.95389      2044.0461      955.95389      2044.0461      1.288241e+09   0.41499464     0.5            3256325        1.669207       2343.0178      4686.0356      107.42942    
   6512700   325.96394      1.3593923     -7332531.5      970.66494     -7331560.8      1088.0219      1088.0219      1088.0219      955.98903      2044.011       955.98903      2044.011       955.98903      2044.011       1.2879914e+09  0.41507507     0.5            3256350        1.678399       2719.7563      5439.5126      107.30868    
   6512750   325.94025      1.3249253     -7332615.3      970.59441     -7331644.7      1088.0109      1088.0109      1088.0109      955.99457      2044.0054      955.99457      2044.0054      955.99457      2044.0054      1.2879521e+09  0.41508774     0.5            3256375        1.686335       3149.8047      6299.6094      107.10966    
   6512800   325.89037      0.78170019    -7332701.8      970.44586     -7331731.3      1088.0495      1088.0495      1088.0495      955.97526      2044.0247      955.97526      2044.0247      955.97526      2044.0247      1.2880892e+09  0.41504354     0.5            3256400        1.699922       1840.1295      3680.2591      107.26956    
   6512850   325.86636      0.59983575    -7332786        970.37437     -7331815.6      1088.0528      1088.0528      1088.0528      955.97361      2044.0264      955.97361      2044.0264      955.97361      2044.0264      1.2881009e+09  0.41503977     0.5            3256425        1.708311       2979.7378      5960.186       107.10143    
   6512900   325.87684      1.0322102     -7332867.7      970.4056      -7331897.3      1087.9962      1087.9962      1087.9962      956.00191      2043.9981      956.00191      2043.9981      956.00191      2043.9981      1.2878999e+09  0.41510456     0.5            3256450        1.715995       3253.5138      6507.0276      106.89141    
   6512950   325.87871      1.3965587     -7332949        970.41117     -7331978.6      1087.9463      1087.9463      1087.9463      956.02687      2043.9731      956.02687      2043.9731      956.02687      2043.9731      1.2877226e+09  0.41516171     0.5            3256475        1.72384        3186.7431      6372.674       106.69389    
   6513000   325.64155      1.1571456     -7333034        969.70494     -7332064.3      1087.9552      1087.9552      1087.9552      956.0224       2043.9776      956.0224       2043.9776      956.0224       2043.9776      1.2877544e+09  0.41515146     0.5            3256500        1.736601       1959.2476      3918.4953      106.80102    
   6513050   325.62324      0.6960519     -7333119.5      969.65042     -7332149.9      1087.9857      1087.9857      1087.9857      956.00713      2043.9929      956.00713      2043.9929      956.00713      2043.9929      1.2878628e+09  0.4151165      0.5            3256525        1.748376       2122.962       4245.9239      106.84653    
   6513100   325.65699      0.70481689    -7333202.8      969.7509      -7332233.1      1087.9705      1087.9705      1087.9705      956.01474      2043.9853      956.01474      2043.9853      956.01474      2043.9853      1.2878088e+09  0.41513391     0.5            3256550        1.756109       3233.3161      6466.6322      106.6458     
   6513150   325.70571      1.1541774     -7333284        969.89598     -7332314.1      1087.9124      1087.9124      1087.9124      956.04382      2043.9562      956.04382      2043.9562      956.04382      2043.9562      1.2876023e+09  0.4152005      0.5            3256575        1.764          3167.7648      6335.5297      106.45698    
   6513200   325.72462      1.350344      -7333366.1      969.95229     -7332396.1      1087.8788      1087.8788      1087.8788      956.06062      2043.9394      956.06062      2043.9394      956.06062      2043.9394      1.287483e+09   0.41523897     0.5            3256600        1.777713       1823.0876      3646.4411      106.61954    
   6513250   325.70363      0.99384714    -7333451.4      969.88979     -7332481.6      1087.8992      1087.8992      1087.8992      956.05039      2043.9496      956.05039      2043.9496      956.05039      2043.9496      1.2875556e+09  0.41521556     0.5            3256625        1.785441       3234.9896      6469.1422      106.42322    
   6513300   325.68286      0.66112614    -7333536.1      969.82794     -7332566.2      1087.9173      1087.9173      1087.9173      956.04134      2043.9587      956.04134      2043.9587      956.04134      2043.9587      1.2876199e+09  0.41519483     0.5            3256650        1.793428       3130.0864      6260.1728      106.24452    
   6513350   325.6929       0.90801674    -7333618.3      969.85785     -7332648.4      1087.8787      1087.8787      1087.8787      956.06066      2043.9393      956.06066      2043.9393      956.06066      2043.9393      1.2874827e+09  0.41523908     0.5            3256675        1.80236        2799.2386      5598.4772      106.12351    
   6513400   325.70464      1.3031177     -7333699.2      969.89279     -7332729.3      1087.8252      1087.8252      1087.8252      956.08741      2043.9126      956.08741      2043.9126      956.08741      2043.9126      1.2872927e+09  0.41530034     0.5            3256700        1.814374       2080.7324      4161.4648      106.1842     
   6513450   325.67955      1.1324136     -7333783.4      969.81809     -7332813.5      1087.8274      1087.8274      1087.8274      956.08632      2043.9137      956.08632      2043.9137      956.08632      2043.9137      1.2873005e+09  0.41529784     0.5            3256725        1.821912       3316.0897      6632.1793      105.98371    
   6513500   325.64374      0.71893507    -7333868.4      969.71146     -7332898.7      1087.8535      1087.8535      1087.8535      956.07323      2043.9268      956.07323      2043.9268      956.07323      2043.9268      1.2873934e+09  0.41526786     0.5            3256750        1.831339       2652.2385      5304.477       105.8946     
   6513550   325.64391      0.88270368    -7333950.8      969.71195     -7332981.1      1087.8226      1087.8226      1087.8226      956.0887       2043.9113      956.0887       2043.9113      956.0887       2043.9113      1.2872836e+09  0.4153033      0.5            3256775        1.839218       3172.9915      6345.983       105.71751    
   6513600   325.65332      1.2797621     -7334031.6      969.73997     -7333061.8      1087.7681      1087.7681      1087.7681      956.11595      2043.8841      956.11595      2043.8841      956.11595      2043.8841      1.2870901e+09  0.41536571     0.5            3256800        1.852885       1829.2237      3658.4474      105.8731     
   6513650   325.6243       1.0479007     -7334115.9      969.65356     -7333146.3      1087.7762      1087.7762      1087.7762      956.11189      2043.8881      956.11189      2043.8881      956.11189      2043.8881      1.2871189e+09  0.41535642     0.5            3256825        1.864289       2192.2133      4384.4265      105.89825    
   6513700   325.59665      0.72187661    -7334200.4      969.57123     -7333230.8      1087.7937      1087.7937      1087.7937      956.10313      2043.8969      956.10313      2043.8969      956.10313      2043.8969      1.2871811e+09  0.41533635     0.5            3256850        1.873333       2763.958       5527.3049      105.78977    
   6513750   325.61164      1.0779485     -7334281.6      969.61587     -7333312        1087.7427      1087.7427      1087.7427      956.12866      2043.8713      956.12866      2043.8713      956.12866      2043.8713      1.2869999e+09  0.41539484     0.5            3256875        1.883465       2467.9171      4936.3215      105.74322    
   6513800   325.60996      1.2141081     -7334363.7      969.61087     -7333394.1      1087.7134      1087.7134      1087.7134      956.1433       2043.8567      956.1433       2043.8567      956.1433       2043.8567      1.2868959e+09  0.41542839     0.5            3256900        1.91709        743.47231      1486.9888      107.00859    
   6513850   325.58032      0.78942717    -7334448.8      969.52259     -7333479.3      1087.7409      1087.7409      1087.7409      956.12957      2043.8704      956.12957      2043.8704      956.12957      2043.8704      1.2869934e+09  0.41539694     0.5            3256925        1.927772       2340.3857      4680.3332      106.98612    
   6513900   325.59309      0.96292149    -7334530.9      969.56063     -7333561.4      1087.7075      1087.7075      1087.7075      956.14624      2043.8538      956.14624      2043.8538      956.14624      2043.8538      1.2868751e+09  0.41543512     0.5            3256950        1.936128       2992.2202      5984.4405      106.83522    
   6513950   325.60774      1.2210116     -7334612.3      969.60426     -7333642.7      1087.6652      1087.6652      1087.6652      956.16741      2043.8326      956.16741      2043.8326      956.16741      2043.8326      1.2867248e+09  0.41548364     0.5            3256975        1.944204       3095.5919      6191.1838      106.67065    
   6514000   325.38039      0.8248804     -7334697.3      968.92725     -7333728.4      1087.6897      1087.6897      1087.6897      956.15513      2043.8449      956.15513      2043.8449      956.15513      2043.8449      1.286812e+09   0.4154555      0.5            3257000        1.957742       1846.5175      3693.3077      106.80581    
   6514050   325.42602      0.98505324    -7334779.3      969.06313     -7333810.2      1087.6571      1087.6571      1087.6571      956.17147      2043.8285      956.17147      2043.8285      956.17147      2043.8285      1.286696e+09   0.41549294     0.5            3257025        1.965973       3037.298       6074.596       106.65143    
   6514100   325.48784      1.0814187     -7334861.6      969.24721     -7333892.3      1087.6307      1087.6307      1087.6307      956.18465      2043.8153      956.18465      2043.8153      956.18465      2043.8153      1.2866024e+09  0.41552316     0.5            3257050        1.977685       2134.7451      4269.1257      106.68643    
   6514150   325.55916      1.1433229     -7336838.7      969.45959     -7335869.2      1087.6031      1087.6031      1087.6031      956.19844      2043.8016      956.19844      2043.8016      956.19844      2043.8016      1.2865046e+09  0.41555478     0.5            3257075        1.985411       3235.8271      6471.6542      106.5071     
   6514200   325.59795      0.90574699    -7336922.8      969.57509     -7335953.3      1087.6111      1087.6111      1087.6111      956.19446      2043.8055      956.19446      2043.8055      956.19446      2043.8055      1.2865328e+09  0.41554564     0.5            3257100        1.999346       1793.915       3588.0875      106.66087    
   6514250   325.65446      0.94021604    -7337005.6      969.74337     -7336035.9      1087.5906      1087.5906      1087.5906      956.20469      2043.7953      956.20469      2043.7953      956.20469      2043.7953      1.2864602e+09  0.41556909     0.5            3257125        2.008383       2766.4048      5532.1974      106.55302    
   6514300   325.71136      1.1605328     -7337087.3      969.9128      -7336117.4      1087.5506      1087.5506      1087.5506      956.22472      2043.7753      956.22472      2043.7753      956.22472      2043.7753      1.2863181e+09  0.41561503     0.5            3257150        2.016154       3217.0892      6434.1784      106.37933    
   6514350   325.73498      0.82687276    -7337172.1      969.98316     -7336202.1      1087.5684      1087.5684      1087.5684      956.21581      2043.7842      956.21581      2043.7842      956.21581      2043.7842      1.2863813e+09  0.4155946      0.5            3257175        2.024564       2972.6516      5946.0102      106.241      
   6514400   325.79787      1.1109644     -7337253.6      970.17042     -7336283.5      1087.5214      1087.5214      1087.5214      956.23932      2043.7607      956.23932      2043.7607      956.23932      2043.7607      1.2862144e+09  0.41564851     0.5            3257200        2.037878       1877.8637      3755.4454      106.35999    
   6514450   325.83121      0.98489154    -7337337.4      970.2697      -7336367.1      1087.5173      1087.5173      1087.5173      956.24135      2043.7586      956.24135      2043.7586      956.24135      2043.7586      1.2862e+09     0.41565317     0.5            3257225        2.050039       2055.752       4111.504       106.41774    
   6514500   325.87508      0.92770281    -7337420.8      970.40034     -7336450.4      1087.506       1087.506       1087.506       956.24702      2043.753       956.24702      2043.753       956.24702      2043.753       1.2861598e+09  0.41566616     0.5            3257250        2.060652       2355.3797      4710.3156      106.39497    
   6514550   325.93071      1.1208224     -7337503        970.566       -7336532.4      1087.4683      1087.4683      1087.4683      956.26585      2043.7341      956.26585      2043.7341      956.26585      2043.7341      1.2860262e+09  0.41570935     0.5            3257275        2.071695       2264.0826      4528.5753      106.39411    
   6514600   325.9609       0.88082034    -7337587.5      970.65589     -7336616.8      1087.4762      1087.4762      1087.4762      956.2619       2043.7381      956.2619       2043.7381      956.2619       2043.7381      1.2860542e+09  0.4157003      0.5            3257300        2.086189       1724.7327      3449.7033      106.56959    
   6514650   326.01851      1.0733809     -7337669.8      970.82746     -7336699        1087.4387      1087.4387      1087.4387      956.28067      2043.7193      956.28067      2043.7193      956.28067      2043.7193      1.2859211e+09  0.41574334     0.5            3257325        2.095693       2630.4714      5260.3893      106.48954    
   6514700   326.05426      0.99549191    -7337753.6      970.9339      -7336782.7      1087.4296      1087.4296      1087.4296      956.28519      2043.7148      956.28519      2043.7148      956.28519      2043.7148      1.285889e+09   0.41575371     0.5            3257350        2.104151       2956.131       5912.262       106.35734    
   6514750   326.09274      0.93992298    -7337837.3      971.0485      -7336866.3      1087.4183      1087.4183      1087.4183      956.29084      2043.7092      956.29084      2043.7092      956.29084      2043.7092      1.2858489e+09  0.41576668     0.5            3257375        2.112351       3048.7805      6097.561       106.21344    
   6514800   326.13799      1.0938814     -7337919.9      971.18324     -7336948.8      1087.3852      1087.3852      1087.3852      956.3074       2043.6926      956.3074       2043.6926      956.3074       2043.6926      1.2857314e+09  0.41580467     0.5            3257400        2.125488       1902.8772      3805.7543      106.31793    
   6514850   326.159        0.91745236    -7338004.4      971.24582     -7337033.1      1087.3868      1087.3868      1087.3868      956.30661      2043.6934      956.30661      2043.6934      956.30661      2043.6934      1.285737e+09   0.41580286     0.5            3257425        2.136969       2177.5107      4355.0213      106.33876    
   6514900   326.19443      1.0303782     -7338087.4      971.35132     -7337116        1087.3583      1087.3583      1087.3583      956.32085      2043.6791      956.32085      2043.6791      956.32085      2043.6791      1.285636e+09   0.41583552     0.5            3257450        2.146733       2560.4261      5120.8521      106.27422    
   6514950   326.21457      1.036183      -7338170.9      971.41129     -7337199.5      1087.3412      1087.3412      1087.3412      956.3294       2043.6706      956.3294       2043.6706      956.3294       2043.6706      1.2855753e+09  0.41585515     0.5            3257475        2.154243       3329.3381      6658.6763      106.09922    
   6515000   326.01529      0.9207415     -7338255.1      970.81786     -7337284.3      1087.3369      1087.3369      1087.3369      956.33157      2043.6684      956.33157      2043.6684      956.33157      2043.6684      1.2855599e+09  0.41586013     0.5            3257500        2.168255       1784.0577      3568.1153      106.24459    
   6515050   326.05671      1.0690966     -7338337.8      970.9412      -7337366.9      1087.3054      1087.3054      1087.3054      956.3473       2043.6527      956.3473       2043.6527      956.3473       2043.6527      1.2854483e+09  0.41589622     0.5            3257525        2.176642       2980.8036      5962.3181      106.1141     
   6515100   326.0977       0.99060827    -7338421.8      971.06328     -7337450.7      1087.2976      1087.2976      1087.2976      956.35119      2043.6488      956.35119      2043.6488      956.35119      2043.6488      1.2854208e+09  0.41590515     0.5            3257550        2.185585       2795.4825      5590.965       106.01179    
   6515150   326.13528      1.0325623     -7338505.1      971.17516     -7337533.9      1087.2776      1087.2776      1087.2776      956.36119      2043.6388      956.36119      2043.6388      956.36119      2043.6388      1.2853498e+09  0.4159281      0.5            3257575        2.193412       3194.0718      6388.1436      105.85654    
   6515200   326.15637      0.93566686    -7340483.8      971.23799     -7339512.6      1087.2676      1087.2676      1087.2676      956.36622      2043.6338      956.36622      2043.6338      956.36622      2043.6338      1.2853142e+09  0.41593964     0.5            3257600        2.212099       1337.8284      2675.5137      106.22427    
   6515250   326.17065      0.99520478    -7340567.1      971.2805      -7339595.8      1087.2462      1087.2462      1087.2462      956.37691      2043.6231      956.37691      2043.6231      956.37691      2043.6231      1.2852383e+09  0.41596419     0.5            3257625        2.219807       3243.3835      6487.6087      106.06356    
   6515300   326.16851      1.068602      -7340650.2      971.27413     -7339678.9      1087.2236      1087.2236      1087.2236      956.38822      2043.6118      956.38822      2043.6118      956.38822      2043.6118      1.2851581e+09  0.41599014     0.5            3257650        2.230422       2355.1578      4709.8719      106.04268    
   6515350   326.14322      0.93990471    -7340734.4      971.19882     -7339763.2      1087.2217      1087.2217      1087.2217      956.38915      2043.6109      956.38915      2043.6109      956.38915      2043.6109      1.2851515e+09  0.41599228     0.5            3257675        2.241742       2207.8954      4415.4009      106.0553     
   6515400   326.1209       0.98505797    -7340817.6      971.13234     -7339846.5      1087.2023      1087.2023      1087.2023      956.39887      2043.6011      956.39887      2043.6011      956.39887      2043.6011      1.2850826e+09  0.41601459     0.5            3257700        2.254753       1921.7465      3843.7884      106.14702    
   6515450   326.09277      1.0723542     -7340900.6      971.04859     -7339929.5      1087.1787      1087.1787      1087.1787      956.41066      2043.5893      956.41066      2043.5893      956.41066      2043.5893      1.284999e+09   0.41604167     0.5            3257725        2.263581       2832.2193      5665.0804      106.04182    
   6515500   326.04792      0.95667563    -7340984.6      970.91502     -7340013.6      1087.1758      1087.1758      1087.1758      956.41212      2043.5879      956.41212      2043.5879      956.41212      2043.5879      1.2849886e+09  0.41604502     0.5            3257750        2.271075       3336.0021      6671.1141      105.87545    
   6515550   326.00882      0.96182118    -7341067.8      970.7986      -7340097        1087.1606      1087.1606      1087.1606      956.41969      2043.5803      956.41969      2043.5803      956.41969      2043.5803      1.2849349e+09  0.41606241     0.5            3257775        2.28366        1986.4919      3972.9837      105.94681    
   6515600   325.97342      1.0723566     -7341150.5      970.69318     -7340179.8      1087.1348      1087.1348      1087.1348      956.43261      2043.5674      956.43261      2043.5674      956.43261      2043.5674      1.2848433e+09  0.41609208     0.5            3257800        2.303004       1292.3904      2584.7808      106.3294     
   6515650   325.92583      0.98101254    -7341234.2      970.55146     -7340263.7      1087.1293      1087.1293      1087.1293      956.43533      2043.5647      956.43533      2043.5647      956.43533      2043.5647      1.2848241e+09  0.4160983      0.5            3257825        2.31171        2871.9127      5743.8254      106.21937    
   6515700   325.88501      0.94373816    -7341317.5      970.4299      -7340347.1      1087.1184      1087.1184      1087.1184      956.44082      2043.5592      956.44082      2043.5592      956.44082      2043.5592      1.2847851e+09  0.41611091     0.5            3257850        2.319543       3191.6252      6383.2504      106.07041    
   6515750   325.8559       1.0661052     -7341400        970.34322     -7340429.6      1087.091       1087.091       1087.091       956.45448      2043.5455      956.45448      2043.5455      956.45448      2043.5455      1.2846883e+09  0.41614229     0.5            3257875        2.329536       2501.5009      5003.0018      106.02116    
   6515800   325.81854      0.99620269    -7341483.4      970.23197     -7340513.2      1087.0831      1087.0831      1087.0831      956.45843      2043.5416      956.45843      2043.5416      956.45843      2043.5416      1.2846602e+09  0.41615138     0.5            3257900        2.341643       2064.9211      4129.8422      106.06785    
   6515850   325.78903      0.93864243    -7341566.7      970.14411     -7340596.5      1087.0738      1087.0738      1087.0738      956.46309      2043.5369      956.46309      2043.5369      956.46309      2043.5369      1.2846272e+09  0.41616207     0.5            3257925        2.349938       3014.2272      6028.4543      105.94223    
   6515900   325.77589      1.0659303     -7341649        970.10496     -7340678.9      1087.0454      1087.0454      1087.0454      956.4773       2043.5227      956.4773       2043.5227      956.4773       2043.5227      1.2845265e+09  0.41619471     0.5            3257950        2.359892       2511.3009      5022.6017      105.89217    
   6515950   325.75592      0.98840658    -7341732.3      970.04551     -7340762.3      1087.0378      1087.0378      1087.0378      956.48111      2043.5189      956.48111      2043.5189      956.48111      2043.5189      1.2844994e+09  0.41620347     0.5            3257975        2.371284       2194.5225      4389.0449      105.90666    
   6516000   325.53071      0.94879897    -7341815.5      969.37488     -7340846.1      1087.0261      1087.0261      1087.0261      956.48696      2043.513       956.48696      2043.513       956.48696      2043.513       1.284458e+09   0.41621689     0.5            3258000        2.385552       1752.1727      3504.591       106.04872    
   6516050   325.57339      0.98554351    -7343792.8      969.50197     -7342823.3      1087.0018      1087.0018      1087.0018      956.49909      2043.5009      956.49909      2043.5009      956.49909      2043.5009      1.2843719e+09  0.41624478     0.5            3258025        2.394405       2824.2205      5647.803       105.9498     
[...]
   7002350   327.09121      0.02432457    -10896867       974.02176     -10895893       961.96859      961.96859      961.96859      1019.0157      1980.9843      1019.0157      1980.9843      1019.0157      1980.9843      8.9018993e+08  0.60056073     0.5            3501175        142.30888      2222.6174      4445.6299      0.75825585   
   7002400   327.12083      0.63173634    -10896953       974.10998     -10895979       961.93276      961.93276      961.93276      1019.0336      1980.9664      1019.0336      1980.9664      1019.0336      1980.9664      8.9009046e+08  0.60062784     0.5            3501200        142.32767      1330.7074      2661.2732      0.74397256   
   7002450   327.1567       2.3150898     -10898931       974.21679     -10897957       961.84911      961.84911      961.84911      1019.0754      1980.9246      1019.0754      1980.9246      1019.0754      1980.9246      8.8985828e+08  0.60078456     0.5            3501225        142.3421       1732.6218      3465.2436      0.72966602   
   7002500   327.06788     -0.24376741    -10897127       973.9523      -10896153       961.9498       961.9498       961.9498       1019.0251      1980.9749      1019.0251      1980.9749      1019.0251      1980.9749      8.9013777e+08  0.60059592     0.5            3501250        142.35148      2664.677       5329.3541      0.71533409   
   7002550   327.09739      1.0189969     -10899107       974.04016     -10898133       961.88401      961.88401      961.88401      1019.058       1980.942       1019.058       1980.942       1019.058       1980.942       8.8995515e+08  0.60071916     0.5            3501275        142.36377      2034.5052      4069.0104      0.70101746   
   7002600   327.10907      2.2783549     -10899191       974.07496     -10898217       961.82136      961.82136      961.82136      1019.0893      1980.9107      1019.0893      1980.9107      1019.0893      1980.9107      8.8978127e+08  0.60083656     0.5            3501300        142.38305      1296.8823      2593.7646      0.68673496   
   7002650   327.03701      0.64691035    -10899281       973.86038     -10898307       961.88009      961.88009      961.88009      1019.06        1980.94        1019.06        1980.94        1019.06        1980.94        8.8994425e+08  0.60072652     0.5            3501325        142.41012      923.29283      1846.5175      0.6724883    
   7002700   326.99354     -0.13761087    -10899368       973.73091     -10898394       961.90328      961.90328      961.90328      1019.0484      1980.9516      1019.0484      1980.9516      1019.0484      1980.9516      8.9000862e+08  0.60068307     0.5            3501350        142.44529      710.87352      1421.7875      0.65827643   
   7002750   327.00937      1.3759523     -10899453       973.77807     -10898479       961.83016      961.83016      961.83016      1019.0849      1980.9151      1019.0849      1980.9151      1019.0849      1980.9151      8.8980567e+08  0.60082008     0.5            3501375        142.47435      860.25945      1720.4005      0.64403276   
   7002800   326.99119      2.0376036     -10899537       973.72392     -10898564       961.79283      961.79283      961.79283      1019.1036      1980.8964      1019.1036      1980.8964      1019.1036      1980.8964      8.8970207e+08  0.60089004     0.5            3501400        142.51868      563.93946      1127.9298      0.62985358   
   7002850   326.91647      0.65720373    -10899627       973.50142     -10898653       961.84091      961.84091      961.84091      1019.0795      1980.9205      1019.0795      1980.9205      1019.0795      1980.9205      8.8983551e+08  0.60079993     0.5            3501425        142.54624      907.24343      1814.421       0.61559592   
   7002900   326.86999      0.040248975   -10899713       973.36301     -10898740       961.85705      961.85705      961.85705      1019.0715      1980.9285      1019.0715      1980.9285      1019.0715      1980.9285      8.8988032e+08  0.60076968     0.5            3501450        142.57311      930.44028      1860.8806      0.60133267   
   7002950   326.87527      1.3077041     -10899798       973.37874     -10898825       961.79431      961.79431      961.79431      1019.1028      1980.8972      1019.1028      1980.8972      1019.1028      1980.8972      8.8970619e+08  0.60088726     0.5            3501475        142.61058      667.09361      1334.1872      0.58711057   
   7003000   326.53375      1.8885501     -10899883       972.36174     -10898911       961.76023      961.76023      961.76023      1019.1199      1980.8801      1019.1199      1980.8801      1019.1199      1980.8801      8.8961161e+08  0.60095114     0.5            3501500        142.66287      478.09374      956.1692       0.5729433    
   7003050   326.50627      0.69400956    -10899972       972.27993     -10899000       961.80046      961.80046      961.80046      1019.0998      1980.9002      1019.0998      1980.9002      1019.0998      1980.9002      8.8972325e+08  0.60087574     0.5            3501525        142.70092      657.0993       1314.1986      0.5587126    
   7003100   326.54129      0.18691788    -10900058       972.3842      -10899086       961.81188      961.81188      961.81188      1019.0941      1980.9059      1019.0941      1980.9059      1019.0941      1980.9059      8.8975494e+08  0.60085433     0.5            3501550        142.76169      411.39397      822.80147      0.54456378   
   7003150   326.6125       1.3520536     -10900143       972.59626     -10899170       961.75308      961.75308      961.75308      1019.1235      1980.8765      1019.1235      1980.8765      1019.1235      1980.8765      8.8959177e+08  0.60096454     0.5            3501575        142.79036      872.14373      1744.3483      0.53028638   
   7003200   326.64193      1.7196384     -10900228       972.68389     -10899255       961.72761      961.72761      961.72761      1019.1362      1980.8638      1019.1362      1980.8638      1019.1362      1980.8638      8.8952109e+08  0.60101229     0.5            3501600        142.80577      1622.3232      3244.6463      0.51595821   
   7003250   326.62148      0.55406963    -10900316       972.62299     -10899344       961.76652      961.76652      961.76652      1019.1167      1980.8833      1019.1167      1980.8833      1019.1167      1980.8833      8.8962908e+08  0.60093934     0.5            3501625        142.81607      2427.1845      4854.3689      0.50161188   
   7003300   326.63067      0.4152623     -10900402       972.65037     -10899430       961.76223      961.76223      961.76223      1019.1189      1980.8811      1019.1189      1980.8811      1019.1189      1980.8811      8.8961716e+08  0.60094739     0.5            3501650        142.82856      2001.1206      4002.5616      0.48727384   
   7003350   326.67079      1.5694019     -10900486       972.76982     -10899514       961.70333      961.70333      961.70333      1019.1483      1980.8517      1019.1483      1980.8517      1019.1483      1980.8517      8.8945371e+08  0.60105782     0.5            3501675        142.83832      2560.4261      5120.8521      0.47292713   
   7003400   326.66058      0.90986498    -10900574       972.73944     -10899601       961.72082      961.72082      961.72082      1019.1396      1980.8604      1019.1396      1980.8604      1019.1396      1980.8604      8.8950226e+08  0.60102502     0.5            3501700        142.85768      1291.1889      2582.1111      0.45861216   
   7003450   326.68406      0.72128142    -10902555       972.80935     -10901582       961.71571      961.71571      961.71571      1019.1421      1980.8579      1019.1421      1980.8579      1019.1421      1980.8579      8.8948809e+08  0.60103459     0.5            3501725        142.86751      2544.7883      5090.0947      0.44426651   
   7003500   326.73719      1.7245666     -10902639       972.96757     -10901666       961.66281      961.66281      961.66281      1019.1686      1980.8314      1019.1686      1980.8314      1019.1686      1980.8314      8.8934131e+08  0.60113379     0.5            3501750        142.88032      1951.2957      3902.5913      0.42993076   
   7003550   326.73364      0.91359773    -10902727       972.95699     -10901754       961.68661      961.68661      961.68661      1019.1567      1980.8433      1019.1567      1980.8433      1019.1567      1980.8433      8.8940735e+08  0.60108915     0.5            3501775        142.89039      2482.6216      4965.2433      0.41558734   
   7003600   326.75702      0.78457886    -10902814       973.0266      -10901841       961.68152      961.68152      961.68152      1019.1592      1980.8408      1019.1592      1980.8408      1019.1592      1980.8408      8.8939322e+08  0.6010987      0.5            3501800        142.90898      1345.0261      2690.0522      0.4012687    
   7003650   326.77152      0.68953888    -10902900       973.06978     -10901927       961.67496      961.67496      961.67496      1019.1625      1980.8375      1019.1625      1980.8375      1019.1625      1980.8375      8.8937502e+08  0.60111101     0.5            3501825        142.91994      2281.23        4562.4601      0.38692854   
   7003700   326.80946      0.9556842     -10910363       973.18277     -10909390       961.64665      961.64665      961.64665      1019.1767      1980.8233      1019.1767      1980.8233      1019.1767      1980.8233      8.8929646e+08  0.6011641      0.5            3501850        142.92931      2666.9511      5334.4714      0.37258493   
   7003750   326.83505      0.8452129     -10912345       973.25897     -10911372       961.638        961.638        961.638        1019.181       1980.819       1019.181       1980.819       1019.181       1980.819       8.8927248e+08  0.60118032     0.5            3501875        142.93788      2915.4519      5830.2239      0.35824032   
   7003800   326.86105      0.48200529    -10910537       973.3364      -10909563       961.64547      961.64547      961.64547      1019.1773      1980.8227      1019.1773      1980.8227      1019.1773      1980.8227      8.8929321e+08  0.6011663      0.5            3501900        142.96044      1108.3034      2216.6068      0.3439305    
   7003850   326.91654      0.68329348    -10920264       973.50164     -10919290       961.61528      961.61528      961.61528      1019.1924      1980.8076      1019.1924      1980.8076      1019.1924      1980.8076      8.8920943e+08  0.60122294     0.5            3501925        142.96969      2703.2872      5406.5744      0.32958835   
   7003900   327.00224      1.689379      -10922243       973.75684     -10921270       961.55936      961.55936      961.55936      1019.2203      1980.7797      1019.2203      1980.7797      1019.2203      1980.7797      8.8905433e+08  0.60132783     0.5            3501950        142.98182      2062.0257      4124.0515      0.31525356   
   7003950   327.01205      0.61374561    -10920437       973.78604     -10919464       961.59701      961.59701      961.59701      1019.2015      1980.7985      1019.2015      1980.7985      1019.2015      1980.7985      8.8915876e+08  0.6012572      0.5            3501975        142.99284      2266.7513      4533.5026      0.3009169    
   7004000   326.75693      1.429957      -10924312       973.02634     -10923339       961.54659      961.54659      961.54659      1019.2267      1980.7733      1019.2267      1980.7733      1019.2267      1980.7733      8.8901891e+08  0.60135179     0.5            3502000        143.00937      1513.134       3026.268       0.28659192   
   7004050   326.78894      0.48986235    -10922505       973.12165     -10921532       961.57849      961.57849      961.57849      1019.2108      1980.7892      1019.2108      1980.7892      1019.2108      1980.7892      8.8910739e+08  0.60129194     0.5            3502025        143.01795      2912.0559      5824.1118      0.27225139   
   7004100   326.91538      1.2552213     -10924486       973.49817     -10923512       961.5331       961.5331       961.5331       1019.2334      1980.7666      1019.2334      1980.7666      1019.2334      1980.7666      8.889815e+08   0.60137709     0.5            3502050        143.02813      2456.0369      4912.0739      0.25791488   
   7004150   327.00344      1.7428405     -10924571       973.76039     -10923598       961.50222      961.50222      961.50222      1019.2489      1980.7511      1019.2489      1980.7511      1019.2489      1980.7511      8.8889584e+08  0.60143505     0.5            3502075        143.03685      2865.658       5731.9729      0.24357673   
   7004200   327.01822      0.29053476    -10924661       973.80442     -10923687       961.55293      961.55293      961.55293      1019.2235      1980.7765      1019.2235      1980.7765      1019.2235      1980.7765      8.8903648e+08  0.60133991     0.5            3502100        143.0531       1538.9351      3077.6807      0.22925176   
   7004250   327.06295      0.42108799    -10924747       973.9376      -10923773       961.53707      961.53707      961.53707      1019.2315      1980.7685      1019.2315      1980.7685      1019.2315      1980.7685      8.8899251e+08  0.60136965     0.5            3502125        143.06264      2619.4468      5238.8935      0.21491634   
   7004300   327.12185      1.7774078     -10924832       974.113       -10923858       961.46992      961.46992      961.46992      1019.265       1980.735       1019.265       1980.735       1019.265       1980.735       8.8880627e+08  0.60149566     0.5            3502150        143.07168      2765.4867      5530.9735      0.20058117   
   7004350   327.11944      1.4831413     -10924919       974.10584     -10923945       961.47203      961.47203      961.47203      1019.264       1980.736       1019.264       1980.736       1019.264       1980.736       8.888121e+08   0.60149171     0.5            3502175        143.08228      2360.0491      4720.5438      0.18624908   
   7004400   327.08838      0.2268565     -10925008       974.01334     -10924034       961.51435      961.51435      961.51435      1019.2428      1980.7572      1019.2428      1980.7572      1019.2428      1980.7572      8.8892948e+08  0.60141229     0.5            3502200        143.10264      1227.6566      2455.1927      0.17192949   
   7004450   327.09926      0.51283906    -10925095       974.04575     -10924120       961.4922       961.4922       961.4922       1019.2539      1980.7461      1019.2539      1980.7461      1019.2539      1980.7461      8.8886804e+08  0.60145386     0.5            3502225        143.11265      2496.2556      4992.5112      0.15759728   
   7004500   327.12634      1.7007297     -10925179       974.12639     -10924205       961.43268      961.43268      961.43268      1019.2837      1980.7163      1019.2837      1980.7163      1019.2837      1980.7163      8.8870298e+08  0.60156556     0.5            3502250        143.12157      2804.5771      5609.7835      0.14326483   
   7004550   327.11007      1.5925342     -10925266       974.07794     -10924292       961.4272       961.4272       961.4272       1019.2864      1980.7136      1019.2864      1980.7136      1019.2864      1980.7136      8.8868778e+08  0.60157586     0.5            3502275        143.13596      1736.4729      3472.7045      0.12893842   
   7004600   327.06678      0.47617478    -10925355       973.94902     -10924381       961.46349      961.46349      961.46349      1019.2683      1980.7317      1019.2683      1980.7317      1019.2683      1980.7317      8.8878844e+08  0.60150773     0.5            3502300        143.15072      1694.4557      3388.9115      0.11461227   
   7004650   327.05052      0.25492242    -10925442       973.90061     -10924468       961.46269      961.46269      961.46269      1019.2687      1980.7313      1019.2687      1980.7313      1019.2687      1980.7313      8.8878621e+08  0.60150923     0.5            3502325        143.15981      2750.275       5500.5501      0.10028207   
   7004700   327.06295      1.1938949     -10925528       973.93762     -10924554       961.41402      961.41402      961.41402      1019.293       1980.707       1019.293       1980.707       1019.293       1980.707       8.8865124e+08  0.60160059     0.5            3502350        143.16857      2852.5787      5705.1575      0.085952717  
   7004750   327.06073      1.8102194     -10925613       973.93099     -10924639       961.37888      961.37888      961.37888      1019.3106      1980.6894      1019.3106      1980.6894      1019.3106      1980.6894      8.8855382e+08  0.60166655     0.5            3502375        143.17828      2574.4002      5148.8003      0.071624956  
   7004800   327.02505      1.2614826     -10925701       973.82476     -10924727       961.39167      961.39167      961.39167      1019.3042      1980.6958      1019.3042      1980.6958      1019.3042      1980.6958      8.8858926e+08  0.60164255     0.5            3502400        143.1922       1796.4932      3593.2447      0.057299801  
   7004850   326.98344      0.38501078    -10925789       973.70085     -10924815       961.41789      961.41789      961.41789      1019.2911      1980.7089      1019.2911      1980.7089      1019.2911      1980.7089      8.8866197e+08  0.60159332     0.5            3502425        143.20412      2098.0195      4195.6868      0.042974128  
   7004900   326.96716      0.33955201    -10925876       973.65237     -10924902       961.40998      961.40998      961.40998      1019.295       1980.705       1019.295       1980.705       1019.295       1980.705       8.8864005e+08  0.60160817     0.5            3502450        143.21464      2375.0713      4750.1425      0.028648659  
   7004950   326.97225      1.1185243     -10925961       973.66752     -10924988       961.36834      961.36834      961.36834      1019.3158      1980.6842      1019.3158      1980.6842      1019.3158      1980.6842      8.8852459e+08  0.60168634     0.5            3502475        143.23122      1507.7498      3015.4997      0.014324555  
   7005000   326.62022      1.7232481     -10926047       972.61924     -10925074       961.33396      961.33396      961.33396      1019.333       1980.667       1019.333       1980.667       1019.333       1980.667       8.8842925e+08  0.60175091     0.5            3502500        143.25586      1014.8575      2029.6326      0            
Loop time of 143.257 on 1 procs for 500000 steps with 1000 atoms

Performance: 150.778 ns/day, 0.159 hours/ns, 3490.241 timesteps/s
78.8% CPU use with 1 MPI tasks x 1 OpenMP threads

MPI task timing breakdown:
Section |  min time  |  avg time  |  max time  |%varavg| %total
---------------------------------------------------------------
Pair    | 39.63      | 39.63      | 39.63      |   0.0 | 27.66
Neigh   | 0.10876    | 0.10876    | 0.10876    |   0.0 |  0.08
Comm    | 2.9003     | 2.9003     | 2.9003     |   0.0 |  2.02
Output  | 52.485     | 52.485     | 52.485     |   0.0 | 36.64
Modify  | 45.27      | 45.27      | 45.27      |   0.0 | 31.60
Other   |            | 2.862      |            |       |  2.00

Nlocal:           1000 ave        1000 max        1000 min
Histogram: 1 0 0 0 0 0 0 0 0 0
Nghost:            901 ave         901 max         901 min
Histogram: 1 0 0 0 0 0 0 0 0 0
Neighs:           2243 ave        2243 max        2243 min
Histogram: 1 0 0 0 0 0 0 0 0 0

Total # of neighbors = 2243
Ave neighs/atom = 2.243
Neighbor list builds = 227
Dangerous builds = 0

# run_style
run_style verlet

# write restart
write_restart ${write_res}
write_restart equpmf1.16.res
System init for write_restart ...
  generated 0 of 1 mixed pair_coeff terms from geometric mixing rule

Total wall time: 0:02:23
