LAMMPS (24 Mar 2022)
OMP_NUM_THREADS environment is not set. Defaulting to 1 thread. (src/comm.cpp:98)
  using 1 OpenMP thread(s) per MPI task
# Read restart
read_restart ${read_res}
read_restart equpmf1.16.res
Reading restart file ...
  restart file = 24 Mar 2022, LAMMPS = 24 Mar 2022
  restoring atom style atomic from restart
  orthogonal box = (1019.333 1019.333 1019.333) to (1980.667 1980.667 1980.667)
  1 by 1 by 1 MPI processor grid
  restoring pair style table from restart
  1000 atoms
  read_restart CPU = 0.003 seconds

# Settings

pair_style table spline 9941

pair_coeff 1 1 N20.txt DE_GNP 75.6
pair_coeff 2 2 N100.txt DE_GNP 115.92
WARNING: 3 of 9941 force values in table DE_GNP are inconsistent with -dE/dr.
WARNING:  Should only be flagged at inflection points (src/pair_table.cpp:465)
pair_coeff 1 2 mixed_potential.txt DE_GNP 95.66
WARNING: 1562 of 9941 force values in table DE_GNP are inconsistent with -dE/dr.
WARNING:  Should only be flagged at inflection points (src/pair_table.cpp:465)

#Neigh_list Calc Frequency

neigh_modify delay 0 every 1 check yes

# Saving Frequency (50 frames)

variable ts_save equal floor(${steps_equ}*0.01)
variable ts_save equal floor(5000*0.01)

# Dump
dump 1 all custom ${ts_save} ./equilibration/trajectory/trajectory_${usic}_${trial}.equ.custom type x y z ix iy iz
dump 1 all custom 50 ./equilibration/trajectory/trajectory_${usic}_${trial}.equ.custom type x y z ix iy iz
dump 1 all custom 50 ./equilibration/trajectory/trajectory_17_${trial}.equ.custom type x y z ix iy iz
dump 1 all custom 50 ./equilibration/trajectory/trajectory_17_1.equ.custom type x y z ix iy iz
dump_modify 1 first no sort id
dump 2 all cfg 500 ./equilibration/trajectory/ovito/dumpgen.tens_*.cfg mass type xs ys zs fx fy fz

# thermo_style
thermo_style custom step temp press pe ke etotal lx ly lz xlo xhi ylo yhi zlo zhi vol density dt time cpu tpcpu spcpu cpuremain

# run info
timestep ${ts}
timestep 0.5
thermo ${ts_save}
thermo 50

# fix

fix 1 all momentum 1000 linear 1 1 1 angular
variable T equal ${temp}
variable T equal 300
#fix 2 all nvt temp ${T} 370000 100.0

#run 100000

#unfix 2

#fix 3 all npt temp 370000 370000 $(100.0*dt) iso 1.0 1.0 $(1000.0*dt)

#run 200000

#unfix 3

#fix 4 all nvt temp 370000 ${T} 100.0

#run 200000

#unfix 4

fix 5 all npt temp ${T} ${T} $(100.0*dt) iso 1.0 1.0 $(1000.0*dt)
fix 5 all npt temp 300 ${T} $(100.0*dt) iso 1.0 1.0 $(1000.0*dt)
fix 5 all npt temp 300 300 $(100.0*dt) iso 1.0 1.0 $(1000.0*dt)
fix 5 all npt temp 300 300 50 iso 1.0 1.0 $(1000.0*dt)
fix 5 all npt temp 300 300 50 iso 1.0 1.0 500
Resetting global fix info from restart file:
  fix style: npt, fix ID: 5

run 500000
  generated 0 of 1 mixed pair_coeff terms from geometric mixing rule
All restart file global fix info was re-assigned
Neighbor list info ...
  update every 1 steps, delay 0 steps, check yes
  max neighbors/atom: 2000, page size: 100000
  master list distance cutoff = 117.92
  ghost atom cutoff = 117.92
  binsize = 58.96, bins = 17 17 17
  1 neighbor lists, perpetual/occasional/extra = 1 0 0
  (1) pair table, perpetual
      attributes: half, newton on
      pair build: half/bin/atomonly/newton
      stencil: half/bin/3d
      bin: standard
Per MPI rank memory allocation (min/avg/max) = 5.802 | 5.802 | 5.802 Mbytes
   Step          Temp          Press          PotEng         KinEng         TotEng           Lx             Ly             Lz            Xlo            Xhi            Ylo            Yhi            Zlo            Zhi           Volume        Density           Dt            Time           CPU           T/CPU          S/CPU         CPULeft    
   7005000   326.62022      1.7232481     -10926047       972.61924     -10925074       961.33396      961.33396      961.33396      1019.333       1980.667       1019.333       1980.667       1019.333       1980.667       8.8842925e+08  0.60175091     0.5            3502500        0              0              0              0            
   7005050   326.63497      1.4580755     -10926134       972.66318     -10925161       961.33512      961.33512      961.33512      1019.3324      1980.6676      1019.3324      1980.6676      1019.3324      1980.6676      8.8843249e+08  0.60174872     0.5            3502525        0.011792       2119.9016      4239.4438      117.9382     
   7005100   326.67456      0.68406729    -10926222       972.78107     -10925249       961.35704      961.35704      961.35704      1019.3215      1980.6785      1019.3215      1980.6785      1019.3215      1980.6785      8.8849325e+08  0.60170757     0.5            3502550        0.020968       2724.4987      5449.5913      104.84403    
   7005150   326.71441      0.29064587    -10926309       972.89972     -10925336       961.36342      961.36342      961.36342      1019.3183      1980.6817      1019.3183      1980.6817      1019.3183      1980.6817      8.8851095e+08  0.60169558     0.5            3502575        0.053931       758.42611      1516.8062      179.72273    
   7005200   326.75824      0.6800909     -10926395       973.03025     -10925422       961.33787      961.33787      961.33787      1019.3311      1980.6689      1019.3311      1980.6689      1019.3311      1980.6689      8.884401e+08   0.60174356     0.5            3502600        0.06338        2645.7826      5291.5652      158.39412    
   7005250   326.79523      1.3967634     -10926480       973.1404      -10925507       961.29903      961.29903      961.29903      1019.3505      1980.6495      1019.3505      1980.6495      1019.3505      1980.6495      8.8833243e+08  0.6018165      0.5            3502625        0.07746        1775.5682      3551.1364      154.84654    
   7005300   326.80883      1.6690241     -10926566       973.1809      -10925593       961.27829      961.27829      961.27829      1019.3609      1980.6391      1019.3609      1980.6391      1019.3609      1980.6391      8.8827493e+08  0.60185546     0.5            3502650        0.086331       2818.1716      5636.9786      143.802      
   7005350   326.79735      1.2277058     -10926653       973.1467      -10925680       961.28658      961.28658      961.28658      1019.3567      1980.6433      1019.3567      1980.6433      1019.3567      1980.6433      8.8829789e+08  0.6018399      0.5            3502675        0.096669       2418.2627      4836.0576      138.00619    
   7005400   326.77841      0.56058607    -10926741       973.09031     -10925768       961.30405      961.30405      961.30405      1019.348       1980.652       1019.348       1980.652       1019.348       1980.652       8.8834633e+08  0.60180708     0.5            3502700        0.105477       2838.3288      5677.3021      131.74327    
   7005450   326.77257      0.37986137    -10926827       973.07291     -10925854       961.30171      961.30171      961.30171      1019.3491      1980.6509      1019.3491      1980.6509      1019.3491      1980.6509      8.8833984e+08  0.60181148     0.5            3502725        0.114632       2730.7482      5460.9         127.25759    
   7005500   326.7832       0.86556329    -10926913       973.10456     -10925940       961.2722       961.2722       961.2722       1019.3639      1980.6361      1019.3639      1980.6361      1019.3639      1980.6361      8.8825805e+08  0.60186689     0.5            3502750        0.12982        1645.928       3291.8559      129.69418    
   7005550   326.79416      1.4807011     -10926999       973.1372      -10926026       961.23742      961.23742      961.23742      1019.3813      1980.6187      1019.3813      1980.6187      1019.3813      1980.6187      8.8816163e+08  0.60193223     0.5            3502775        0.142127       2031.5293      4063.3889      129.06605    
   7005600   326.78804      1.5573702     -10927085       973.11898     -10926112       961.22455      961.22455      961.22455      1019.3877      1980.6123      1019.3877      1980.6123      1019.3877      1980.6123      8.8812596e+08  0.6019564      0.5            3502800        0.153979       2109.3486      4218.6973      128.16352    
   7005650   326.76542      1.0242122     -10927173       973.05162     -10926199       961.23652      961.23652      961.23652      1019.3817      1980.6183      1019.3817      1980.6183      1019.3817      1980.6183      8.8815915e+08  0.60193391     0.5            3502825        0.162369       2979.7378      5958.7653      124.73917    
   7005700   326.74429      0.48062062    -10927260       972.9887      -10926287       961.24893      961.24893      961.24893      1019.3755      1980.6245      1019.3755      1980.6245      1019.3755      1980.6245      8.8819353e+08  0.60191061     0.5            3502850        0.170583       3043.5841      6087.1682      121.67584    
   7005750   326.74009      0.52840031    -10927346       972.97618     -10926373       961.23722      961.23722      961.23722      1019.3814      1980.6186      1019.3814      1980.6186      1019.3814      1980.6186      8.8816108e+08  0.6019326      0.5            3502875        0.179402       2834.7885      5669.577       119.42393    
   7005800   326.75211      1.2155918     -10927431       973.01199     -10926458       961.19944      961.19944      961.19944      1019.4003      1980.5997      1019.4003      1980.5997      1019.4003      1980.5997      8.8805635e+08  0.60200359     0.5            3502900        0.188115       2869.2758      5739.2103      117.38501    
   7005850   326.72919      0.65131058    -10927519       972.94373     -10926546       961.21269      961.21269      961.21269      1019.3937      1980.6063      1019.3937      1980.6063      1019.3937      1980.6063      8.8809307e+08  0.6019787      0.5            3502925        0.217895       839.48959      1678.9228      127.9574     
   7005900   326.74963      1.2890568     -10934982       973.00459     -10934009       961.17073      961.17073      961.17073      1019.4146      1980.5854      1019.4146      1980.5854      1019.4146      1980.5854      8.8797677e+08  0.60205754     0.5            3502950        0.228547       2346.9771      4693.5136      126.74423    
   7005950   326.75085      1.2875779     -10935068       973.00822     -10934095       961.16102      961.16102      961.16102      1019.4195      1980.5805      1019.4195      1980.5805      1019.4195      1980.5805      8.8794986e+08  0.60207579     0.5            3502975        0.238062       2627.4304      5255.4131      125.05878    
   7006000   326.41233      1.3910374     -10935154       972.00017     -10934182       961.14702      961.14702      961.14702      1019.4265      1980.5735      1019.4265      1980.5735      1019.4265      1980.5735      8.8791108e+08  0.60210208     0.5            3503000        0.251953       1799.7264      3599.4529      125.72604    
   7006050   326.43793      0.87866329    -10935241       972.0764      -10934269       961.15817      961.15817      961.15817      1019.4209      1980.5791      1019.4209      1980.5791      1019.4209      1980.5791      8.8794198e+08  0.60208113     0.5            3503025        0.260947       2779.6309      5559.2617      124.00095    
   7006100   326.50262      0.52361569    -10935328       972.26904     -10934356       961.1629       961.1629       961.1629       1019.4185      1980.5815      1019.4185      1980.5815      1019.4185      1980.5815      8.8795509e+08  0.60207224     0.5            3503050        0.269704       2855.185       5710.37        122.32393    
   7006150   326.56804      0.73826447    -10935414       972.46386     -10934442       961.14437      961.14437      961.14437      1019.4278      1980.5722      1019.4278      1980.5722      1019.4278      1980.5722      8.8790372e+08  0.60210708     0.5            3503075        0.27934        2594.1683      5188.8751      121.1737     
   7006200   326.62082      1.2554276     -10935500       972.62102     -10934527       961.11346      961.11346      961.11346      1019.4433      1980.5567      1019.4433      1980.5567      1019.4433      1980.5567      8.8781806e+08  0.60216517     0.5            3503100        0.287726       2981.1591      5961.6072      119.59935    
   7006250   326.64848      1.4511459     -10935586       972.7034      -10934613       961.09565      961.09565      961.09565      1019.4522      1980.5478      1019.4522      1980.5478      1019.4522      1980.5478      8.8776871e+08  0.60219864     0.5            3503125        0.297773       2488.305       4976.6099      118.81222    
   7006300   326.6517       1.0955815     -10935673       972.71297     -10934700       961.10036      961.10036      961.10036      1019.4498      1980.5502      1019.4498      1980.5502      1019.4498      1980.5502      8.8778176e+08  0.60218979     0.5            3503150        0.306577       2839.6184      5679.8819      117.60842    
   7006350   326.64811      0.63429174    -10935759       972.7023      -10934787       961.10937      961.10937      961.10937      1019.4453      1980.5547      1019.4453      1980.5547      1019.4453      1980.5547      8.8780674e+08  0.60217285     0.5            3503175        0.315161       2912.3952      5824.7903      116.41187    
   7006400   326.65535      0.64282155    -10935846       972.72385     -10934873       961.09916      961.09916      961.09916      1019.4504      1980.5496      1019.4504      1980.5496      1019.4504      1980.5496      8.8777844e+08  0.60219204     0.5            3503200        0.324305       2734.0332      5467.4686      115.49998    
   7006450   326.67211      1.1012043     -10935931       972.77377     -10934959       961.07051      961.07051      961.07051      1019.4647      1980.5353      1019.4647      1980.5353      1019.4647      1980.5353      8.8769906e+08  0.60224589     0.5            3503225        0.332721       2970.5323      5941.0646      114.39969    
   7006500   326.68189      1.4137882     -10936017       972.80288     -10935044       961.0478       961.0478       961.0478       1019.4761      1980.5239      1019.4761      1980.5239      1019.4761      1980.5239      8.8763612e+08  0.6022886      0.5            3503250        0.347428       1699.8708      3399.9728      115.46257    
   7006550   326.67557      1.1790263     -10936104       972.78406     -10935131       961.0475       961.0475       961.0475       1019.4763      1980.5237      1019.4763      1980.5237      1019.4763      1980.5237      8.8763528e+08  0.60228917     0.5            3503275        0.356153       2865.3295      5730.659       114.53255    
   7006600   326.66419      0.71796984    -10936191       972.75017     -10935218       961.05646      961.05646      961.05646      1019.4718      1980.5282      1019.4718      1980.5282      1019.4718      1980.5282      8.8766013e+08  0.60227231     0.5            3503300        0.364482       3001.5608      6003.1216      113.53677    
   7006650   326.66468      0.65059431    -10936277       972.75165     -10935304       961.04929      961.04929      961.04929      1019.4754      1980.5246      1019.4754      1980.5246      1019.4754      1980.5246      8.8764025e+08  0.60228579     0.5            3503325        0.373636       2731.0465      5461.4965      112.85       
   7006700   326.67725      1.058743      -10936363       972.78906     -10935390       961.02259      961.02259      961.02259      1019.4887      1980.5113      1019.4887      1980.5113      1019.4887      1980.5113      8.8756626e+08  0.602336       0.5            3503350        0.382063       2966.6548      5933.3096      111.98999    
   7006750   326.68506      1.3687822     -10936449       972.81233     -10935476       960.99986      960.99986      960.99986      1019.5001      1980.4999      1019.5001      1980.4999      1019.5001      1980.4999      8.875033e+08   0.60237873     0.5            3503375        0.390811       2857.7961      5715.5921      111.27004    
   7006800   326.67786      1.1485439     -10936535       972.79088     -10935562       960.9989       960.9989       960.9989       1019.5006      1980.4994      1019.5006      1980.4994      1019.5006      1980.4994      8.8750063e+08  0.60238054     0.5            3503400        0.400636       2544.5293      5089.5765      110.8877     
   7006850   326.6669       0.72589349    -10936622       972.75825     -10935649       961.00625      961.00625      961.00625      1019.4969      1980.5031      1019.4969      1980.5031      1019.4969      1980.5031      8.8752099e+08  0.60236672     0.5            3503425        0.40909        2957.18        5913.6606      110.15631    
   7006900   326.66902      0.7213429     -10936708       972.76454     -10935736       960.99639      960.99639      960.99639      1019.5018      1980.4982      1019.5018      1980.4982      1019.5018      1980.4982      8.8749368e+08  0.60238526     0.5            3503450        0.424138       1661.3503      3322.9215      111.19165    
   7006950   326.68168      1.128568      -10936794       972.80225     -10935821       960.96955      960.96955      960.96955      1019.5152      1980.4848      1019.5152      1980.4848      1019.5152      1980.4848      8.8741932e+08  0.60243573     0.5            3503475        0.434218       2480.1587      4960.3175      110.90424    
   7007000   326.36229      1.3224158     -10936880       971.85117     -10935908       960.95146      960.95146      960.95146      1019.5243      1980.4757      1019.5243      1980.4757      1019.5243      1980.4757      8.8736921e+08  0.60246975     0.5            3503500        0.450099       1574.2082      3148.2181      112.0754     
   7007050   326.39201      1.0165155     -10936967       971.93966     -10935995       960.95398      960.95398      960.95398      1019.523       1980.477       1019.523       1980.477       1019.523       1980.477       8.8737618e+08  0.60246503     0.5            3503525        0.46074        2349.4033      4698.8065      111.91536    
   7007100   326.45767      0.70143565    -10937053       972.13521     -10936081       960.95686      960.95686      960.95686      1019.5216      1980.4784      1019.5216      1980.4784      1019.5216      1980.4784      8.8738417e+08  0.6024596      0.5            3503550        0.469217       2949.1565      5898.3131      111.24983    
   7007150   326.52464      0.86663675    -10937139       972.33462     -10936167       960.93993      960.93993      960.93993      1019.53        1980.47        1019.53        1980.47        1019.53        1980.47        8.8733725e+08  0.60249146     0.5            3503575        0.479337       2470.3557      4940.7115      110.99485    
   7007200   326.57816      1.2309974     -10937225       972.49401     -10936252       960.91475      960.91475      960.91475      1019.5426      1980.4574      1019.5426      1980.4574      1019.5426      1980.4574      8.8726752e+08  0.6025388      0.5            3503600        0.48793        2909.3448      5819.3669      110.4057     
   7007250   326.60621      1.2105458     -10937311       972.57753     -10936338       960.90545      960.90545      960.90545      1019.5473      1980.4527      1019.5473      1980.4527      1019.5473      1980.4527      8.8724176e+08  0.6025563      0.5            3503625        0.499502       2160.3871      4320.4009      110.50138    
   7007300   326.61662      0.85694895    -10937398       972.60851     -10936425       960.9099       960.9099       960.9099       1019.545       1980.455       1019.545       1980.455       1019.545       1980.455       8.8725408e+08  0.60254793     0.5            3503650        0.50799        2945.3346      5890.6692      109.92505    
   7007350   326.62907      0.75259778    -10937484       972.6456      -10936512       960.90405      960.90405      960.90405      1019.548       1980.452       1019.548       1980.452       1019.548       1980.452       8.8723788e+08  0.60255894     0.5            3503675        0.516537       2925.3452      5850.6904      109.38538    
   7007400   326.64797      1.0521206     -10937570       972.70187     -10936597       960.88151      960.88151      960.88151      1019.5592      1980.4408      1019.5592      1980.4408      1019.5592      1980.4408      8.8717544e+08  0.60260134     0.5            3503700        0.526371       2541.942       5084.4011      109.13467    
   7007450   326.65948      1.2495038     -10937656       972.73616     -10936683       960.86318      960.86318      960.86318      1019.5684      1980.4316      1019.5684      1980.4316      1019.5684      1980.4316      8.8712467e+08  0.60263583     0.5            3503725        0.534648       3020.418       6040.1063      108.5778     
   7007500   326.65728      1.0297661     -10937742       972.72959     -10936770       960.86208      960.86208      960.86208      1019.569       1980.431       1019.569       1980.431       1019.569       1980.431       8.8712162e+08  0.6026379      0.5            3503750        0.549008       1740.9471      3481.8942      109.25299    
   7007550   326.65419      0.77432254    -10937829       972.72041     -10936856       960.86245      960.86245      960.86245      1019.5688      1980.4312      1019.5688      1980.4312      1019.5688      1980.4312      8.8712264e+08  0.60263721     0.5            3503775        0.558472       2641.5892      5283.7367      108.94623    
   7007600   326.66162      0.90475748    -10937915       972.74254     -10936942       960.84685      960.84685      960.84685      1019.5766      1980.4234      1019.5766      1980.4234      1019.5766      1980.4234      8.8707943e+08  0.60266656     0.5            3503800        0.566871       2976.5448      5952.381       108.44736    
   7007650   326.67183      1.1847815     -10938001       972.77292     -10937028       960.82504      960.82504      960.82504      1019.5875      1980.4125      1019.5875      1980.4125      1019.5875      1980.4125      8.8701903e+08  0.6027076      0.5            3503825        0.576803       2517.1164      5034.2328      108.25433    
   7007700   326.67257      1.1415514     -10938087       972.77513     -10937114       960.81658      960.81658      960.81658      1019.5917      1980.4083      1019.5917      1980.4083      1019.5917      1980.4083      8.8699561e+08  0.60272352     0.5            3503850        0.58517        2987.9288      5976.5718      107.78001    
   7007750   326.66858      0.86454999    -10938173       972.76325     -10937201       960.81777      960.81777      960.81777      1019.5911      1980.4089      1019.5911      1980.4089      1019.5911      1980.4089      8.869989e+08   0.60272128     0.5            3503875        0.595581       2401.3063      4802.1514      107.69224    
   7007800   326.67357      0.83010547    -10938260       972.77812     -10937287       960.80891      960.80891      960.80891      1019.5955      1980.4045      1019.5955      1980.4045      1019.5955      1980.4045      8.8697435e+08  0.60273796     0.5            3503900        0.604541       2790.1786      5580.98        107.34956    
   7007850   326.68734      1.0828009     -10938346       972.81912     -10937373       960.78815      960.78815      960.78815      1019.6059      1980.3941      1019.6059      1980.3941      1019.6059      1980.3941      8.8691685e+08  0.60277704     0.5            3503925        0.613295       2855.8373      5711.6747      106.98267    
   7007900   326.69721      1.1824504     -10938432       972.84852     -10937459       960.7737       960.7737       960.7737       1019.6131      1980.3869      1019.6131      1980.3869      1019.6131      1980.3869      8.8687686e+08  0.60280422     0.5            3503950        0.62307        2557.5448      5114.5663      106.80313    
   7007950   326.70024      0.97112296    -10938518       972.85752     -10937545       960.77211      960.77211      960.77211      1019.6139      1980.3861      1019.6139      1980.3861      1019.6139      1980.3861      8.8687245e+08  0.60280721     0.5            3503975        0.631892       2833.8245      5667.6491      106.46895    
   7008000   326.38807      0.8189322     -10938605       971.92794     -10937633       960.76807      960.76807      960.76807      1019.616       1980.384       1019.616       1980.384       1019.616       1980.384       8.8686125e+08  0.60281482     0.5            3504000        0.646693       1689.0751      3378.1501      107.13581    
   7008050   326.44234      0.97340757    -10938690       972.08954     -10937718       960.75138      960.75138      960.75138      1019.6243      1980.3757      1019.6243      1980.3757      1019.6243      1980.3757      8.8681504e+08  0.60284624     0.5            3504025        0.655378       2878.5262      5757.0524      106.78413    
   7008100   326.53096      1.1632688     -10938776       972.35343     -10937804       960.73326      960.73326      960.73326      1019.6334      1980.3666      1019.6334      1980.3666      1019.6334      1980.3666      8.8676487e+08  0.60288035     0.5            3504050        0.663956       2914.4323      5828.8645      106.4262     
   7008150   326.59944      1.0822439     -10938863       972.55736     -10937890       960.72636      960.72636      960.72636      1019.6368      1980.3632      1019.6368      1980.3632      1019.6368      1980.3632      8.8674577e+08  0.60289333     0.5            3504075        0.672995       2765.7927      5532.1974      106.15192    
   7008200   326.64771      0.87665192    -10938949       972.70112     -10937976       960.72464      960.72464      960.72464      1019.6377      1980.3623      1019.6377      1980.3623      1019.6377      1980.3623      8.86741e+08    0.60289658     0.5            3504100        0.681391       2977.6084      5955.2168      105.78626    
   7008250   326.68763      0.86839088    -10939035       972.81998     -10938063       960.71484      960.71484      960.71484      1019.6426      1980.3574      1019.6426      1980.3574      1019.6426      1980.3574      8.8671386e+08  0.60291503     0.5            3504125        0.691141       2564.1026      5128.2051      105.63855    
   7008300   326.72157      1.0544902     -10939121       972.92105     -10938148       960.69712      960.69712      960.69712      1019.6514      1980.3486      1019.6514      1980.3486      1019.6514      1980.3486      8.8666481e+08  0.60294838     0.5            3504150        0.699801       2886.5027      5773.0054      105.33111    
   7008350   326.74406      1.15389       -10939207       972.98801     -10938235       960.68305      960.68305      960.68305      1019.6585      1980.3415      1019.6585      1980.3415      1019.6585      1980.3415      8.8662584e+08  0.60297488     0.5            3504175        0.708237       2963.8411      5927.6823      104.99907    
   7008400   326.75396      1.0352995     -10939294       973.01749     -10938321       960.67799      960.67799      960.67799      1019.661       1980.339       1019.661       1980.339       1019.661       1980.339       8.8661182e+08  0.60298442     0.5            3504200        0.71672        2947.0706      5893.4465      104.68357    
   7008450   326.75786      0.87437124    -10939381       973.02911     -10938408       960.67471      960.67471      960.67471      1019.6626      1980.3374      1019.6626      1980.3374      1019.6626      1980.3374      8.8660276e+08  0.60299058     0.5            3504225        0.726522       2550.2397      5100.9998      104.56695    
   7008500   326.76197      0.88472288    -10939467       973.04136     -10938494       960.6645       960.6645       960.6645       1019.6678      1980.3322      1019.6678      1980.3322      1019.6678      1980.3322      8.8657448e+08  0.60300982     0.5            3504250        0.740032       1850.6181      3700.9623      104.97911    
   7008550   326.76522      1.0416475     -10939553       973.05102     -10938580       960.64837      960.64837      960.64837      1019.6758      1980.3242      1019.6758      1980.3242      1019.6758      1980.3242      8.8652981e+08  0.6030402      0.5            3504275        0.749967       2516.3563      5032.7126      104.87947    
   7008600   326.76202      1.140459      -10939639       973.04149     -10938666       960.63468      960.63468      960.63468      1019.6827      1980.3173      1019.6827      1980.3173      1019.6827      1980.3173      8.8649193e+08  0.60306597     0.5            3504300        0.75895        2783.0346      5566.0692      104.65105    
   7008650   326.74997      1.0642101     -10939725       973.0056      -10938752       960.6282       960.6282       960.6282       1019.6859      1980.3141      1019.6859      1980.3141      1019.6859      1980.3141      8.8647399e+08  0.60307817     0.5            3504325        0.7673         2994.012       5988.024       104.3427     
   7008700   326.73274      0.91360086    -10939812       972.9543      -10938839       960.6248       960.6248       960.6248       1019.6876      1980.3124      1019.6876      1980.3124      1019.6876      1980.3124      8.8646457e+08  0.60308458     0.5            3504350        0.777571       2434.0376      4868.5492      104.29986    
   7008750   326.71562      0.87003986    -10939898       972.90331     -10938925       960.61708      960.61708      960.61708      1019.6915      1980.3085      1019.6915      1980.3085      1019.6915      1980.3085      8.864432e+08   0.60309912     0.5            3504375        0.786268       2874.5544      5749.1089      104.04973    
   7008800   326.69967      0.98020786    -10939984       972.85584     -10939011       960.60314      960.60314      960.60314      1019.6984      1980.3016      1019.6984      1980.3016      1019.6984      1980.3016      8.8640461e+08  0.60312537     0.5            3504400        0.796408       2465.4832      4930.4802      103.99451    
   7008850   326.6812       1.1104175     -10940070       972.80083     -10939097       960.58842      960.58842      960.58842      1019.7058      1980.2942      1019.7058      1980.2942      1019.7058      1980.2942      8.8636386e+08  0.60315311     0.5            3504425        0.804779       2986.501       5973.7157      103.71223    
   7008900   326.65659      1.1081251     -10940156       972.72756     -10939183       960.57911      960.57911      960.57911      1019.7104      1980.2896      1019.7104      1980.2896      1019.7104      1980.2896      8.863381e+08   0.60317063     0.5            3504450        0.813311       2930.1453      5859.6039      103.45771    
   7008950   326.62695      0.9782687     -10940242       972.63928     -10939270       960.57502      960.57502      960.57502      1019.7125      1980.2875      1019.7125      1980.2875      1019.7125      1980.2875      8.8632678e+08  0.60317834     0.5            3504475        0.823202       2527.5503      5055.6117      103.37983    
   7009000   326.2737       0.87670336    -10940329       971.58738     -10939357       960.56979      960.56979      960.56979      1019.7151      1980.2849      1019.7151      1980.2849      1019.7151      1980.2849      8.8631228e+08  0.60318821     0.5            3504500        0.836039       1947.3438      3894.3843      103.66921    
   7009050   326.28552      0.92725371    -10940414       971.62255     -10939443       960.55836      960.55836      960.55836      1019.7208      1980.2792      1019.7208      1980.2792      1019.7208      1980.2792      8.8628064e+08  0.60320974     0.5            3504525        0.846899       2302.2378      4604.8996      103.70878    
   7009100   326.33346      1.0683369     -10940500       971.76532     -10939528       960.5432       960.5432       960.5432       1019.7284      1980.2716      1019.7284      1980.2716      1019.7284      1980.2716      8.862387e+08   0.60323828     0.5            3504550        0.855463       2919.5375      5838.3933      103.46954    
   7009150   326.36629      1.1192182     -10940586       971.86308     -10939614       960.53169      960.53169      960.53169      1019.7342      1980.2658      1019.7342      1980.2658      1019.7342      1980.2658      8.8620683e+08  0.60325998     0.5            3504575        0.863846       2981.8702      5963.7405      103.21434    
   7009200   326.37843      1.0086842     -10940672       971.89925     -10939700       960.52673      960.52673      960.52673      1019.7366      1980.2634      1019.7366      1980.2634      1019.7366      1980.2634      8.8619311e+08  0.60326932     0.5            3504600        0.873753       2523.4683      5046.9365      103.1447     
   7009250   326.46258      0.90210186    -10948135       972.14983     -10947163       960.51531      960.51531      960.51531      1019.7423      1980.2577      1019.7423      1980.2577      1019.7423      1980.2577      8.861615e+08   0.60329084     0.5            3504625        0.882206       2957.5299      5915.0597      102.90697    
   7009300   326.52156      1.0942779     -10948221       972.32544     -10947249       960.49776      960.49776      960.49776      1019.7511      1980.2489      1019.7511      1980.2489      1019.7511      1980.2489      8.8611293e+08  0.60332391     0.5            3504650        0.892383       2456.5196      4913.0392      102.87331    
   7009350   326.55168      1.1367671     -10948307       972.41514     -10947334       960.48628      960.48628      960.48628      1019.7569      1980.2431      1019.7569      1980.2431      1019.7569      1980.2431      8.8608116e+08  0.60334553     0.5            3504675        0.900946       2919.5375      5839.0751      102.65641    
   7009400   326.56039      0.95448487    -10948393       972.44108     -10947421       960.48402      960.48402      960.48402      1019.758       1980.242       1019.758       1980.242       1019.758       1980.242       8.8607488e+08  0.60334981     0.5            3504700        0.909503       2921.5847      5843.1693      102.44345    
   7009450   326.56334      0.85079812    -10948479       972.44987     -10947507       960.47845      960.47845      960.47845      1019.7608      1980.2392      1019.7608      1980.2392      1019.7608      1980.2392      8.8605947e+08  0.6033603      0.5            3504725        0.917836       3000.12        6000.24        102.21003    
   7009500   326.56929      1.0124546     -10948565       972.46757     -10947592       960.46183      960.46183      960.46183      1019.7691      1980.2309      1019.7691      1980.2309      1019.7691      1980.2309      8.8601347e+08  0.60339163     0.5            3504750        0.932169       1744.1049      3488.2099      102.64249    
   7009550   326.57216      1.1504677     -10948650       972.47614     -10947678       960.44609      960.44609      960.44609      1019.777       1980.223       1019.777       1980.223       1019.777       1980.223       8.8596991e+08  0.6034213      0.5            3504775        0.940838       2884.1717      5768.3433      102.44817    
   7009600   326.56726      1.0002886     -10948737       972.46153     -10947764       960.44224      960.44224      960.44224      1019.7789      1980.2211      1019.7789      1980.2211      1019.7789      1980.2211      8.8595927e+08  0.60342855     0.5            3504800        0.950739       2524.7425      5049.995       102.39078    
   7009650   326.56478      0.84956684    -10948823       972.45414     -10947850       960.43836      960.43836      960.43836      1019.7808      1980.2192      1019.7808      1980.2192      1019.7808      1980.2192      8.8594854e+08  0.60343585     0.5            3504825        0.959576       2829.3345      5658.6691      102.22085    
   7009700   326.57296      1.0068407     -10948908       972.47851     -10947936       960.42159      960.42159      960.42159      1019.7892      1980.2108      1019.7892      1980.2108      1019.7892      1980.2108      8.8590211e+08  0.60346748     0.5            3504850        0.968097       2933.9279      5867.1673      102.02116    
   7009750   326.58173      1.1499782     -10948994       972.50463     -10948022       960.40531      960.40531      960.40531      1019.7973      1980.2027      1019.7973      1980.2027      1019.7973      1980.2027      8.8585708e+08  0.60349815     0.5            3504875        0.9771         2776.8522      5553.7043      101.87574    
   7009800   326.58348      0.96763571    -10949080       972.50982     -10948108       960.40259      960.40259      960.40259      1019.7987      1980.2013      1019.7987      1980.2013      1019.7987      1980.2013      8.8584954e+08  0.60350329     0.5            3504900        0.985624       2932.8954      5866.4789      101.68375    
   7009850   326.59037      0.85583417    -10949166       972.53034     -10948194       960.39687      960.39687      960.39687      1019.8016      1980.1984      1019.8016      1980.1984      1019.8016      1980.1984      8.8583373e+08  0.60351406     0.5            3504925        0.99548        2536.526       5073.0519      101.63153    
   7009900   326.60787      1.0719751     -10949252       972.58246     -10948280       960.37737      960.37737      960.37737      1019.8113      1980.1887      1019.8113      1980.1887      1019.8113      1980.1887      8.8577975e+08  0.60355084     0.5            3504950        1.003918       2963.1386      5925.5748      101.4369     
   7009950   326.62086      1.1237151     -10949338       972.62116     -10948365       960.3647       960.3647       960.3647       1019.8176      1980.1824      1019.8176      1980.1824      1019.8176      1980.1824      8.8574471e+08  0.60357472     0.5            3504975        1.014973       2261.2156      4522.8403      101.50775    
   7010000   326.30678      0.88251019    -10949424       971.68587     -10948453       960.36431      960.36431      960.36431      1019.8178      1980.1822      1019.8178      1980.1822      1019.8178      1980.1822      8.8574362e+08  0.60357546     0.5            3505000        1.029709       1696.5255      3392.8208      101.94139    
   7010050   326.36013      0.91805864    -10949510       971.84474     -10948538       960.35228      960.35228      960.35228      1019.8239      1980.1761      1019.8239      1980.1761      1019.8239      1980.1761      8.8571035e+08  0.60359813     0.5            3505025        1.038185       2949.8525      5899.705       101.75261    
   7010100   326.45268      1.1550929     -10949596       972.12033     -10948624       960.33176      960.33176      960.33176      1019.8341      1980.1659      1019.8341      1980.1659      1019.8341      1980.1659      8.8565355e+08  0.60363684     0.5            3505050        1.047773       2607.4259      5214.8519      101.67526    
   7010150   326.52226      1.0179752     -10949682       972.32753     -10948710       960.32694      960.32694      960.32694      1019.8365      1980.1635      1019.8365      1980.1635      1019.8365      1980.1635      8.8564023e+08  0.60364592     0.5            3505075        1.056417       2891.845       5783.69        101.50853    
   7010200   326.57532      0.82942385    -10949768       972.48552     -10948796       960.32428      960.32428      960.32428      1019.8379      1980.1621      1019.8379      1980.1621      1019.8379      1980.1621      8.8563287e+08  0.60365094     0.5            3505100        1.064979       2920.2196      5840.4392      101.33704    
   7010250   326.62727      1.0588331     -10949854       972.64022     -10948881       960.30401      960.30401      960.30401      1019.848       1980.152       1019.848       1980.152       1019.848       1980.152       8.855768e+08   0.60368916     0.5            3505125        1.075059       2479.9127      4959.8254      101.3118     
   7010300   326.66489      1.1539961     -10949940       972.75227     -10948967       960.28939      960.28939      960.28939      1019.8553      1980.1447      1019.8553      1980.1447      1019.8553      1980.1447      8.8553634e+08  0.60371674     0.5            3505150        1.083671       2902.9261      5806.5265      101.14963    
   7010350   326.68645      0.86607303    -10950026       972.81647     -10949054       960.29088      960.29088      960.29088      1019.8546      1980.1454      1019.8546      1980.1454      1019.8546      1980.1454      8.8554047e+08  0.60371393     0.5            3505175        1.093916       2440.4529      4880.4295      101.14141    
   7010400   326.71427      0.89431303    -10950113       972.89932     -10949140       960.27907      960.27907      960.27907      1019.8605      1980.1395      1019.8605      1980.1395      1019.8605      1980.1395      8.8550779e+08  0.6037362      0.5            3505200        1.102171       3028.4676      6056.9352      100.95088    
   7010450   326.74538      1.1916581     -10950198       972.99193     -10949225       960.25596      960.25596      960.25596      1019.872       1980.128       1019.872       1980.128       1019.872       1980.128       8.8544386e+08  0.60377979     0.5            3505225        1.11478        1982.3963      3964.4783      101.15907    
   7010500   326.76056      1.0360844     -10950285       973.03714     -10949312       960.25189      960.25189      960.25189      1019.8741      1980.1259      1019.8741      1980.1259      1019.8741      1980.1259      8.8543262e+08  0.60378746     0.5            3505250        1.131397       1504.5739      3009.5101      101.72306    
   7010550   326.7728       0.77487707    -10950371       973.07359     -10949398       960.25227      960.25227      960.25227      1019.8739      1980.1261      1019.8739      1980.1261      1019.8739      1980.1261      8.8543366e+08  0.60378675     0.5            3505275        1.141875       2385.9515      4771.903       101.72992    
   7010600   326.79841      1.0375569     -10950457       973.14988     -10949484       960.2307       960.2307       960.2307       1019.8847      1980.1153      1019.8847      1980.1153      1019.8847      1980.1153      8.8537399e+08  0.60382744     0.5            3505300        1.150302       2966.6548      5933.3096      101.55541    
   7010650   326.81854      1.2398341     -10950543       973.20981     -10949570       960.21173      960.21173      960.21173      1019.8941      1980.1059      1019.8941      1980.1059      1019.8941      1980.1059      8.8532152e+08  0.60386323     0.5            3505325        1.159016       2869.2758      5737.893       101.40895    
   7010700   326.82193      0.90140525    -10950630       973.2199      -10949657       960.2154       960.2154       960.2154       1019.8923      1980.1077      1019.8923      1980.1077      1019.8923      1980.1077      8.8533168e+08  0.6038563      0.5            3505350        1.172975       1790.8309      3581.6619      101.71974    
   7010750   326.83065      0.747752      -10950716       973.24588     -10949743       960.21138      960.21138      960.21138      1019.8943      1980.1057      1019.8943      1980.1057      1019.8943      1980.1057      8.8532056e+08  0.60386388     0.5            3505375        1.18193        2792.0482      5584.0965      101.59476    
   7010800   326.85191      1.1349833     -10950802       973.30916     -10949829       960.18489      960.18489      960.18489      1019.9076      1980.0924      1019.9076      1980.0924      1019.9076      1980.0924      8.8524727e+08  0.60391388     0.5            3505400        1.192658       2330.1333      4660.2666      101.62294    
   7010850   326.86232      1.2796627     -10950888       973.34016     -10949915       960.16857      960.16857      960.16857      1019.9157      1980.0843      1019.9157      1980.0843      1019.9157      1980.0843      8.8520214e+08  0.60394466     0.5            3505425        1.206207       1845.1546      3690.3092      101.88866    
   7010900   326.85604      0.86255641    -10950975       973.32148     -10950002       960.17559      960.17559      960.17559      1019.9122      1980.0878      1019.9122      1980.0878      1019.9122      1980.0878      8.8522157e+08  0.60393141     0.5            3505450        1.214646       2962.4363      5924.8726      101.72162    
   7010950   326.8568       0.67053379    -10951062       973.32372     -10950089       960.17329      960.17329      960.17329      1019.9134      1980.0866      1019.9134      1980.0866      1019.9134      1980.0866      8.8521521e+08  0.60393575     0.5            3505475        1.224016       2668.0896      5336.7489      101.63464    
   7011000   326.54041      1.0854514     -10951148       972.38159     -10950175       960.14595      960.14595      960.14595      1019.927       1980.073       1019.927       1980.073       1019.927       1980.073       8.8513958e+08  0.60398735     0.5            3505500        1.237141       1904.7619      3809.2336      101.85819    
   7011050   326.58898      1.3896305     -10951233       972.52622     -10950261       960.12331      960.12331      960.12331      1019.9383      1980.0617      1019.9383      1980.0617      1019.9383      1980.0617      8.8507696e+08  0.60403008     0.5            3505525        1.24696        2546.0841      5092.1682      101.80783    
   7011100   326.64612      0.65941889    -10951321       972.69636     -10950348       960.14325      960.14325      960.14325      1019.9284      1980.0716      1019.9284      1980.0716      1019.9284      1980.0716      8.8513212e+08  0.60399244     0.5            3505550        1.259146       2051.5345      4103.0691      101.9497     
   7011150   326.74835      1.3459049     -10958784       973.00079     -10957811       960.0988       960.0988       960.0988       1019.9506      1980.0494      1019.9506      1980.0494      1019.9506      1980.0494      8.850092e+08   0.60407633     0.5            3505575        1.267691       2926.03        5852.0599      101.79678    
   7011200   326.7937       0.44686816    -10958871       973.13584     -10957898       960.12563      960.12563      960.12563      1019.9372      1980.0628      1019.9372      1980.0628      1019.9372      1980.0628      8.8508339e+08  0.6040257      0.5            3505600        1.277781       2477.7007      4955.4014      101.76923    
   7011250   326.85279      0.70509624    -10958958       973.3118      -10957984       960.10509      960.10509      960.10509      1019.9475      1980.0525      1019.9475      1980.0525      1019.9475      1980.0525      8.8502657e+08  0.60406448     0.5            3505625        1.291752       1789.2929      3578.8419      102.04857    
   7011300   326.90432      1.3932698     -10959043       973.46525     -10958070       960.06715      960.06715      960.06715      1019.9664      1980.0336      1019.9664      1980.0336      1019.9664      1980.0336      8.8492166e+08  0.60413609     0.5            3505650        1.302736       2276.0379      4551.6614      102.08917    
   7011350   326.9288       1.6155324     -10959129       973.53815     -10958155       960.04832      960.04832      960.04832      1019.9758      1980.0242      1019.9758      1980.0242      1019.9758      1980.0242      8.8486961e+08  0.60417162     0.5            3505675        1.311428       2876.208       5753.0779      101.95077    
   7011400   326.9252       1.0963429     -10959217       973.52742     -10958243       960.05964      960.05964      960.05964      1019.9702      1980.0298      1019.9702      1980.0298      1019.9702      1980.0298      8.8490089e+08  0.60415027     0.5            3505700        1.324253       1949.4697      3898.6355      102.13317    
   7011450   326.91441      0.43718597    -10959304       973.4953      -10958330       960.07661      960.07661      960.07661      1019.9617      1980.0383      1019.9617      1980.0383      1019.9617      1980.0383      8.8494784e+08  0.60411822     0.5            3505725        1.332634       2982.5817      5965.1634      101.97256    
   7011500   326.9165       0.34924103    -10959390       973.5015      -10958417       960.07046      960.07046      960.07046      1019.9648      1980.0352      1019.9648      1980.0352      1019.9648      1980.0352      8.8493082e+08  0.60412984     0.5            3505750        1.347084       1730.1038      3460.2076      102.27499    
   7011550   326.9319       0.91103935    -10959476       973.54737     -10958503       960.03814      960.03814      960.03814      1019.9809      1980.0191      1019.9809      1980.0191      1019.9809      1980.0191      8.8484145e+08  0.60419085     0.5            3505775        1.358667       2158.1492      4316.671       102.3566     
   7011600   326.94467      1.5800177     -10959562       973.58538     -10958588       960.00169      960.00169      960.00169      1019.9992      1980.0008      1019.9992      1980.0008      1019.9992      1980.0008      8.8474068e+08  0.60425967     0.5            3505800        1.366821       3066.3559      6131.9598      102.18037    
   7011650   326.93965      1.7679583     -10959648       973.57045     -10958674       959.98473      959.98473      959.98473      1020.0076      1979.9924      1020.0076      1979.9924      1020.0076      1979.9924      8.8469378e+08  0.6042917      0.5            3505825        1.377          2456.2782      4912.5565      102.15698    
   7011700   326.91523      1.3419228     -10959735       973.49772     -10958762       959.99245      959.99245      959.99245      1020.0038      1979.9962      1020.0038      1979.9962      1020.0038      1979.9962      8.8471512e+08  0.60427713     0.5            3505850        1.385399       2976.1905      5952.381       102.00273    
   7011750   326.88227      0.65009712    -10959823       973.3996      -10958849       960.01081      960.01081      960.01081      1019.9946      1980.0054      1019.9946      1980.0054      1019.9946      1980.0054      8.8476589e+08  0.60424245     0.5            3505875        1.395426       2493.5169      4987.0337      101.96961    
   7011800   326.85412      0.18323734    -10959909       973.31577     -10958936       960.02018      960.02018      960.02018      1019.9899      1980.0101      1019.9899      1980.0101      1019.9899      1980.0101      8.8479179e+08  0.60422476     0.5            3505900        1.404336       2805.5213      5611.0425      101.85588    
   7011850   326.83743      0.22487265    -10959996       973.26605     -10959022       960.00927      960.00927      960.00927      1019.9954      1980.0046      1019.9954      1980.0046      1019.9954      1980.0046      8.8476162e+08  0.60424537     0.5            3505925        1.415119       2318.4642      4637.3586      101.87853    
   7011900   326.82959      0.72315134    -10960082       973.24272     -10959108       959.98025      959.98025      959.98025      1020.0099      1979.9901      1020.0099      1979.9901      1020.0099      1979.9901      8.8468139e+08  0.60430017     0.5            3505950        1.427215       2066.7989      4133.5979      101.9943     
   7011950   326.82211      1.3827612     -10960167       973.22043     -10959194       959.94494      959.94494      959.94494      1020.0275      1979.9725      1020.0275      1979.9725      1020.0275      1979.9725      8.8458379e+08  0.60436684     0.5            3505975        1.441555       1743.4968      3486.7503      102.26758    
   7012000   326.48833      1.8585642     -10960252       972.22649     -10959280       959.91704      959.91704      959.91704      1020.0415      1979.9585      1020.0415      1979.9585      1020.0415      1979.9585      8.8450666e+08  0.60441955     0.5            3506000        1.462725       1180.8606      2361.7212      103.01777    
   7012050   326.49672      1.9285699     -10960338       972.25149     -10959366       959.9053       959.9053       959.9053       1020.0473      1979.9527      1020.0473      1979.9527      1020.0473      1979.9527      8.8447421e+08  0.60444172     0.5            3506025        1.476824       1773.1754      3546.3508      103.26261    
   7012100   326.52615      1.5737712     -10960425       972.33913     -10959453       959.91043      959.91043      959.91043      1020.0448      1979.9552      1020.0448      1979.9552      1020.0448      1979.9552      8.8448837e+08  0.60443204     0.5            3506050        1.485707       2814.6814      5629.3628      103.14169    
   7012150   326.53644      0.95969604    -10960512       972.36976     -10959540       959.9258       959.9258       959.9258       1020.0371      1979.9629      1020.0371      1979.9629      1020.0371      1979.9629      8.8453088e+08  0.60440299     0.5            3506075        1.496462       2324.5002      4649.0005      103.15137    
   7012200   326.53059      0.34968909    -10960599       972.35234     -10959627       959.94101      959.94101      959.94101      1020.0295      1979.9705      1020.0295      1979.9705      1020.0295      1979.9705      8.8457291e+08  0.60437427     0.5            3506100        1.505105       2892.1795      5784.3591      103.01628    
   7012250   326.51889     -0.0097794772  -10960685       972.3175      -10959713       959.9463       959.9463       959.9463       1020.0268      1979.9732      1020.0268      1979.9732      1020.0268      1979.9732      8.8458755e+08  0.60436427     0.5            3506125        1.513523       2969.8266      5940.3588      102.86751    
   7012300   326.50853      0.016208132   -10960771       972.28665     -10959799       959.93637      959.93637      959.93637      1020.0318      1979.9682      1020.0318      1979.9682      1020.0318      1979.9682      8.8456009e+08  0.60438303     0.5            3506150        1.521875       2993.295       5985.8733      102.71627    
   7012350   326.50144      0.41156948    -10960857       972.26555     -10959885       959.91188      959.91188      959.91188      1020.0441      1979.9559      1020.0441      1979.9559      1020.0441      1979.9559      8.8449237e+08  0.60442931     0.5            3506175        1.533096       2227.9654      4455.9308      102.75928    
   7012400   326.49526      1.029644      -10960942       972.24713     -10959970       959.87863      959.87863      959.87863      1020.0607      1979.9393      1020.0607      1979.9393      1020.0607      1979.9393      8.8440047e+08  0.60449211     0.5            3506200        1.541547       2958.5799      5917.1598      102.61717    
   7012450   326.48538      1.6514968     -10961027       972.21771     -10960055       959.84524      959.84524      959.84524      1020.0774      1979.9226      1020.0774      1979.9226      1020.0774      1979.9226      8.843082e+08   0.60455519     0.5            3506225        1.551077       2623.2949      5246.5897      102.54818    
   7012500   326.4672       2.0592018     -10961111       972.16358     -10960139       959.8203       959.8203       959.8203       1020.0898      1979.9102      1020.0898      1979.9102      1020.0898      1979.9102      8.8423926e+08  0.60460232     0.5            3506250        1.563893       1950.5344      3901.3733      102.69577    
   7012550   326.43806      2.1061554     -10961197       972.0768      -10960225       959.80959      959.80959      959.80959      1020.0952      1979.9048      1020.0952      1979.9048      1020.0952      1979.9048      8.8420966e+08  0.60462256     0.5            3506275        1.572853       2790.49        5580.3571      102.58973    
   7012600   326.39845      1.7653675     -10961284       971.95885     -10960312       959.81418      959.81418      959.81418      1020.0929      1979.9071      1020.0929      1979.9071      1020.0929      1979.9071      8.8422234e+08  0.60461389     0.5            3506300        1.581076       3040.2529      6080.5059      102.43721    
   7012650   326.35225      1.1424605     -10961371       971.82129     -10960399       959.82988      959.82988      959.82988      1020.0851      1979.9149      1020.0851      1979.9149      1020.0851      1979.9149      8.8426573e+08  0.60458422     0.5            3506325        1.589472       2977.2538      5955.2168      102.29772    
   7012700   326.3058       0.44733477    -10961457       971.68294     -10960486       959.84841      959.84841      959.84841      1020.0758      1979.9242      1020.0758      1979.9242      1020.0758      1979.9242      8.8431694e+08  0.60454921     0.5            3506350        1.598797       2680.9651      5361.9303      102.21932    
   7012750   326.26615     -0.067315225   -10961543       971.5649      -10960572       959.8598       959.8598       959.8598       1020.0701      1979.9299      1020.0701      1979.9299      1020.0701      1979.9299      8.8434844e+08  0.60452768     0.5            3506375        1.607513       2868.2882      5735.9183      102.10319    
   7012800   326.23894     -0.18886811    -10961629       971.48386     -10960657       959.85566      959.85566      959.85566      1020.0722      1979.9278      1020.0722      1979.9278      1020.0722      1979.9278      8.8433699e+08  0.60453551     0.5            3506400        1.616044       2930.4888      5861.6647      101.97665    
   7012850   326.23195      0.35575186    -10961714       971.46305     -10960743       959.82515      959.82515      959.82515      1020.0874      1979.9126      1020.0874      1979.9126      1020.0874      1979.9126      8.8425266e+08  0.60459316     0.5            3506425        1.625195       2731.9419      5462.6898      101.89066    
   7012900   326.24278      1.5711676     -10961798       971.49529     -10960826       959.76797      959.76797      959.76797      1020.116       1979.884       1020.116       1979.884       1020.116       1979.884       8.8409465e+08  0.60470122     0.5            3506450        1.63382        2898.5507      5797.7737      101.7727     
   7012950   326.23739      2.1658197     -10963776       971.47924     -10962805       959.73266      959.73266      959.73266      1020.1337      1979.8663      1020.1337      1979.8663      1020.1337      1979.8663      8.8399705e+08  0.60476798     0.5            3506475        1.64443        2356.2677      4712.5353      101.77896    
   7013000   325.88069      1.2852444     -10961969       970.41705     -10960999       959.76093      959.76093      959.76093      1020.1195      1979.8805      1020.1195      1979.8805      1020.1195      1979.8805      8.8407519e+08  0.60471453     0.5            3506500        1.660786       1528.4911      3056.9821      102.13846    
   7013050   325.87796     -0.026313575   -10962056       970.40891     -10961085       959.80375      959.80375      959.80375      1020.0981      1979.9019      1020.0981      1979.9019      1020.0981      1979.9019      8.8419351e+08  0.60463361     0.5            3506525        1.669129       2996.8832      5993.7665      102.00354    
   7013100   326.00785      2.246429      -10971409       970.79572     -10970438       959.69532      959.69532      959.69532      1020.1523      1979.8477      1020.1523      1979.8477      1020.1523      1979.8477      8.8389388e+08  0.60483857     0.5            3506550        1.678056       2799.8656      5599.7312      101.90583    
   7013150   325.98865     -0.18023013    -10962226       970.73853     -10961255       959.79121      959.79121      959.79121      1020.1044      1979.8956      1020.1044      1979.8956      1020.1044      1979.8956      8.8415886e+08  0.60465731     0.5            3506575        1.686809       2856.4899      5713.6327      101.79853    
   7013200   326.08787      1.3429739     -10971582       971.03399     -10970611       959.71235      959.71235      959.71235      1020.1438      1979.8562      1020.1438      1979.8562      1020.1438      1979.8562      8.8394093e+08  0.60480638     0.5            3506600        1.696021       2713.8515      5427.703       101.72001    
   7013250   326.11117      1.303945      -10971668       971.10337     -10970697       959.70425      959.70425      959.70425      1020.1479      1979.8521      1020.1479      1979.8521      1020.1479      1979.8521      8.8391857e+08  0.60482168     0.5            3506625        1.704472       2958.5799      5916.4596      101.59698    
   7013300   326.11974      0.44579158    -10962482       971.12891     -10961510       959.73754      959.73754      959.73754      1020.1312      1979.8688      1020.1312      1979.8688      1020.1312      1979.8688      8.8401055e+08  0.60475875     0.5            3506650        1.712845       2985.4311      5971.5753      101.47071    
   7013350   326.19996      2.3586424     -10971835       971.36777     -10970864       959.64221      959.64221      959.64221      1020.1789      1979.8211      1020.1789      1979.8211      1020.1789      1979.8211      8.8374714e+08  0.604939       0.5            3506675        1.723022       2456.5196      4913.0392      101.45207    
   7013400   326.14966     -0.34370111    -10962652       971.218       -10961681       959.74958      959.74958      959.74958      1020.1252      1979.8748      1020.1252      1979.8748      1020.1252      1979.8748      8.8404383e+08  0.60473598     0.5            3506700        1.732085       2758.7729      5516.937       101.36833    
   7013450   326.23148      0.97441054    -10972010       971.46163     -10971038       959.67803      959.67803      959.67803      1020.161       1979.839       1020.161       1979.839       1020.161       1979.839       8.8384612e+08  0.60487125     0.5            3506725        1.742717       2351.1709      4702.784       101.37675    
   7013500   326.30351      2.4394334     -10972091       971.67614     -10971119       959.60874      959.60874      959.60874      1020.1956      1979.8044      1020.1956      1979.8044      1020.1956      1979.8044      8.8365469e+08  0.60500229     0.5            3506750        1.755815       1908.8341      3817.3767      101.52754    
   7013550   326.3147       1.7367617     -10972179       971.70946     -10971207       959.62705      959.62705      959.62705      1020.1865      1979.8135      1020.1865      1979.8135      1020.1865      1979.8135      8.8370526e+08  0.60496767     0.5            3506775        1.764337       2933.5837      5867.1673      101.41338    
   7013600   326.31015      0.23571504    -10972266       971.6959      -10971295       959.67752      959.67752      959.67752      1020.1612      1979.8388      1020.1612      1979.8388      1020.1612      1979.8388      8.838447e+08   0.60487222     0.5            3506800        1.773793       2643.5445      5287.6481      101.35382    
   7013650   326.33343     -0.41635021    -10972352       971.76524     -10971380       959.69364      959.69364      959.69364      1020.1532      1979.8468      1020.1532      1979.8468      1020.1532      1979.8468      8.8388925e+08  0.60484174     0.5            3506825        1.782322       2931.5197      5862.352       101.24218    
   7013700   326.39928      0.50725184    -10972437       971.96131     -10971465       959.64613      959.64613      959.64613      1020.1769      1979.8231      1020.1769      1979.8231      1020.1769      1979.8231      8.8375799e+08  0.60493158     0.5            3506850        1.79192        2604.7093      5209.4186      101.1921     
   7013750   326.47379      1.9446882     -10972520       972.18318     -10971548       959.57755      959.57755      959.57755      1020.2112      1979.7888      1020.2112      1979.7888      1020.2112      1979.7888      8.8356852e+08  0.60506129     0.5            3506875        1.801302       2664.677       5329.3541      101.13035    
   7013800   326.51209      2.2342937     -10972605       972.29725     -10971632       959.55542      959.55542      959.55542      1020.2223      1979.7777      1020.2223      1979.7777      1020.2223      1979.7777      8.835074e+08   0.60510315     0.5            3506900        1.810101       2840.9091      5682.4639      101.03666    
   7013850   326.51133      1.0731598     -10972693       972.29497     -10971721       959.59235      959.59235      959.59235      1020.2038      1979.7962      1020.2038      1979.7962      1020.2038      1979.7962      8.8360942e+08  0.60503329     0.5            3506925        1.818562       2954.7335      5909.467       100.92516    
   7013900   326.51411     -0.11513656    -10972780       972.30325     -10971808       959.63022      959.63022      959.63022      1020.1849      1979.8151      1020.1849      1979.8151      1020.1849      1979.8151      8.8371402e+08  0.60496167     0.5            3506950        1.828399       2541.6836      5082.8505      100.89076    
   7013950   326.55617      0.10968751    -10972866       972.42851     -10971893       959.61085      959.61085      959.61085      1020.1946      1979.8054      1020.1946      1979.8054      1020.1946      1979.8054      8.8366052e+08  0.6049983      0.5            3506975        1.837078       2880.1843      5761.0324      100.79309    
   7014000   326.30159      1.4025462     -10972950       971.67041     -10971978       959.54809      959.54809      959.54809      1020.226       1979.774       1020.226       1979.774       1020.226       1979.774       8.8348715e+08  0.60511702     0.5            3507000        1.851279       1760.4394      3520.8788      100.99766    
   7014050   326.38131      2.1084259     -10973034       971.9078      -10972062       959.50902      959.50902      959.50902      1020.2455      1979.7545      1020.2455      1979.7545      1020.2455      1979.7545      8.8337923e+08  0.60519095     0.5            3507025        1.860696       2654.7733      5308.9828      100.9403     
   7014100   326.4531       1.391062      -10973121       972.1216      -10972149       959.52804      959.52804      959.52804      1020.236       1979.764       1020.236       1979.764       1020.236       1979.764       8.8343177e+08  0.60515495     0.5            3507050        1.869377       2880.1843      5760.3687      100.84375    
   7014150   326.50287      0.23504416    -10973209       972.2698      -10972236       959.56481      959.56481      959.56481      1020.2176      1979.7824      1020.2176      1979.7824      1020.2176      1979.7824      8.8353332e+08  0.6050854      0.5            3507075        1.879676       2427.1845      4854.8403      100.83497    
   7014200   326.56918      0.21797652    -10973294       972.46725     -10972322       959.55529      959.55529      959.55529      1020.2224      1979.7776      1020.2224      1979.7776      1020.2224      1979.7776      8.8350704e+08  0.6051034      0.5            3507100        1.888362       2878.1948      5756.3896      100.74011    
   7014250   326.66275      1.7350781     -10975273       972.74589     -10974300       959.48073      959.48073      959.48073      1020.2596      1979.7404      1020.2596      1979.7404      1020.2596      1979.7404      8.8330111e+08  0.60524447     0.5            3507125        1.898186       2544.7883      5089.0585      100.70657    
   7014300   326.66362      0.21460787    -10973466       972.74849     -10972493       959.53507      959.53507      959.53507      1020.2325      1979.7675      1020.2325      1979.7675      1020.2325      1979.7675      8.8345118e+08  0.60514166     0.5            3507150        1.90763        2647.1834      5294.3668      100.65323    
   7014350   326.76524      1.9142483     -10982821       973.05108     -10981848       959.4468       959.4468       959.4468       1020.2766      1979.7234      1020.2766      1979.7234      1020.2766      1979.7234      8.832074e+08   0.60530869     0.5            3507175        1.915997       2988.2859      5976.5718      100.54384    
   7014400   326.75906      0.079384277   -10975533       973.03268     -10974560       959.51767      959.51767      959.51767      1020.2412      1979.7588      1020.2412      1979.7588      1020.2412      1979.7588      8.8340312e+08  0.60517458     0.5            3507200        1.927924       2095.9088      4192.169       100.62133    
   7014450   326.86196      1.6223229     -10983363       973.3391      -10982390       959.43654      959.43654      959.43654      1020.2817      1979.7183      1020.2817      1979.7183      1020.2817      1979.7183      8.8317906e+08  0.60532811     0.5            3507225        1.941223       1879.8406      3759.3985      100.76909    
   7014500   326.89717      1.4536402     -10983449       973.44396     -10982476       959.43328      959.43328      959.43328      1020.2834      1979.7166      1020.2834      1979.7166      1020.2834      1979.7166      8.8317005e+08  0.60533429     0.5            3507250        1.962016       1202.3855      2404.7711      101.30209    
   7014550   326.9056       0.46529615    -10983537       973.46907     -10982564       959.4635       959.4635       959.4635       1020.2682      1979.7318      1020.2682      1979.7318      1020.2682      1979.7318      8.8325352e+08  0.60527708     0.5            3507275        1.970512       2942.2149      5885.1224      101.19776    
   7014600   326.92871      0.32568674    -10983624       973.53788     -10982650       959.45905      959.45905      959.45905      1020.2705      1979.7295      1020.2705      1979.7295      1020.2705      1979.7295      8.8324121e+08  0.60528552     0.5            3507300        1.981115       2357.8233      4715.6465      101.20206    
   7014650   326.96861      1.1754438     -10983709       973.65668     -10982735       959.41419      959.41419      959.41419      1020.2929      1979.7071      1020.2929      1979.7071      1020.2929      1979.7071      8.8311734e+08  0.60537041     0.5            3507325        1.99479        1828.2873      3656.3071      101.36231    
   7014700   326.98958      1.7017319     -10983794       973.71914     -10982820       959.38248      959.38248      959.38248      1020.3088      1979.6912      1020.3088      1979.6912      1020.3088      1979.6912      8.8302979e+08  0.60543044     0.5            3507350        2.004136       2674.655       5349.8823      101.30194    
   7014750   326.97644      1.1636478     -10983881       973.68001     -10982908       959.39443      959.39443      959.39443      1020.3028      1979.6972      1020.3028      1979.6972      1020.3028      1979.6972      8.8306279e+08  0.60540781     0.5            3507375        2.012675       2928.0862      5855.4866      101.20148    
   7014800   326.95779      0.4220783     -10983968       973.62446     -10982995       959.41465      959.41465      959.41465      1020.2927      1979.7073      1020.2927      1979.7073      1020.2927      1979.7073      8.8311861e+08  0.60536955     0.5            3507400        2.022533       2536.0114      5072.0227      101.16803    
   7014850   326.96286      0.57984132    -10984055       973.63955     -10983081       959.39815      959.39815      959.39815      1020.3009      1979.6991      1020.3009      1979.6991      1020.3009      1979.6991      8.8307305e+08  0.60540078     0.5            3507425        2.031009       2949.1565      5899.009       101.06599    
   7014900   326.97978      1.3452001     -10984140       973.68996     -10983166       959.35682      959.35682      959.35682      1020.3216      1979.6784      1020.3216      1979.6784      1020.3216      1979.6784      8.8295892e+08  0.60547903     0.5            3507450        2.039896       2813.0978      5626.1956      100.98525    
   7014950   326.97646      1.5567665     -10984225       973.68005     -10983252       959.33813      959.33813      959.33813      1020.3309      1979.6691      1020.3309      1979.6691      1020.3309      1979.6691      8.8290733e+08  0.60551441     0.5            3507475        2.050282       2406.8547      4812.7828      100.97926    
   7015000   326.64613      0.93601384    -10984313       972.69641     -10983340       959.35355      959.35355      959.35355      1020.3232      1979.6768      1020.3232      1979.6768      1020.3232      1979.6768      8.8294991e+08  0.60548521     0.5            3507500        2.068285       1388.8117      2777.7778      101.34606    
   7015050   326.65966      0.43960049    -10984400       972.7367      -10983427       959.36385      959.36385      959.36385      1020.3181      1979.6819      1020.3181      1979.6819      1020.3181      1979.6819      8.8297835e+08  0.60546571     0.5            3507525        2.078645       2412.8945      4826.2548      101.33663    
   7015100   326.73418      1.0115599     -10984485       972.95861     -10983512       959.33054      959.33054      959.33054      1020.3347      1979.6653      1020.3347      1979.6653      1020.3347      1979.6653      8.8288636e+08  0.60552879     0.5            3507550        2.087311       2885.1702      5769.6746      101.24501    
   7015150   326.76858      0.71675458    -10984572       973.06103     -10983599       959.33264      959.33264      959.33264      1020.3337      1979.6663      1020.3337      1979.6663      1020.3337      1979.6663      8.8289217e+08  0.60552481     0.5            3507575        2.098072       2323.2042      4646.4083      101.25533    
   7015200   326.82881      1.5579798     -10992034       973.24038     -10991061       959.28199      959.28199      959.28199      1020.359       1979.641       1020.359       1979.641       1020.359       1979.641       8.8275232e+08  0.60562074     0.5            3507600        2.112143       1776.4514      3552.6503      101.42457    
   7015250   326.83301      1.0522065     -10992121       973.2529      -10991148       959.29279      959.29279      959.29279      1020.3536      1979.6464      1020.3536      1979.6464      1020.3536      1979.6464      8.8278215e+08  0.60560027     0.5            3507625        2.12496        1950.6866      3901.9822      101.53172    
   7015300   326.82543      0.67231546    -10984830       973.23033     -10983857       959.30463      959.30463      959.30463      1020.3477      1979.6523      1020.3477      1979.6523      1020.3477      1979.6523      8.8281484e+08  0.60557785     0.5            3507650        2.133795       2829.9751      5659.3096      101.44858    
   7015350   326.85664      1.4279849     -10992293       973.32327     -10991319       959.25746      959.25746      959.25746      1020.3713      1979.6287      1020.3713      1979.6287      1020.3713      1979.6287      8.8268462e+08  0.60566719     0.5            3507675        2.148736       1673.1361      3346.2723      101.65508    
   7015400   326.85203      1.3202664     -10992379       973.30954     -10991406       959.25193      959.25193      959.25193      1020.374       1979.626       1020.374       1979.626       1020.374       1979.626       8.8266935e+08  0.60567767     0.5            3507700        2.162521       1813.4339      3626.6048      101.80507    
   7015450   326.82856      0.59310302    -10992467       973.23964     -10991493       959.27179      959.27179      959.27179      1020.3641      1979.6359      1020.3641      1979.6359      1020.3641      1979.6359      8.8272418e+08  0.60564004     0.5            3507725        2.173913       2194.7151      4389.8156      101.84116    
   7015500   326.8428       1.1112813     -10992920       973.28203     -10991947       959.23872      959.23872      959.23872      1020.3806      1979.6194      1020.3806      1979.6194      1020.3806      1979.6194      8.8263288e+08  0.60570269     0.5            3507750        2.186971       1914.5352      3829.0703      101.9546     
   7015550   326.83508      1.1775768     -10993006       973.25907     -10992033       959.22603      959.22603      959.22603      1020.387       1979.613       1020.387       1979.613       1020.387       1979.613       8.8259785e+08  0.60572674     0.5            3507775        2.19856        2157.4042      4314.8084      101.99869    
   7015600   326.8126       0.55694586    -10993094       973.19212     -10992120       959.24153      959.24153      959.24153      1020.3792      1979.6208      1020.3792      1979.6208      1020.3792      1979.6208      8.8264064e+08  0.60569736     0.5            3507800        2.209172       2355.6016      4711.2032      101.99719    
   7015650   326.81199      0.75786336    -10993179       973.1903      -10992206       959.22333      959.22333      959.22333      1020.3883      1979.6117      1020.3883      1979.6117      1020.3883      1979.6117      8.8259039e+08  0.60573185     0.5            3507825        2.217934       2853.2299      5707.1111      101.91051    
   7015700   326.81837      1.3675847     -10993265       973.20931     -10992291       959.18831      959.18831      959.18831      1020.4058      1979.5942      1020.4058      1979.5942      1020.4058      1979.5942      8.8249373e+08  0.6057982      0.5            3507850        2.228922       2275.4164      4550.4186      101.9264     
   7015750   326.80398      1.3498031     -10993351       973.16646     -10992378       959.17907      959.17907      959.17907      1020.4105      1979.5895      1020.4105      1979.5895      1020.4105      1979.5895      8.8246823e+08  0.60581571     0.5            3507875        2.237395       2950.2006      5900.4012      101.82763    
   7015800   326.77394      0.736602      -10993438       973.07701     -10992465       959.19428      959.19428      959.19428      1020.4029      1979.5971      1020.4029      1979.5971      1020.4029      1979.5971      8.8251022e+08  0.60578688     0.5            3507900        2.24719        2552.3226      5105.1664      101.78947    
   7015850   326.75833      0.57212618    -10993524       973.03052     -10992551       959.19105      959.19105      959.19105      1020.4045      1979.5955      1020.4045      1979.5955      1020.4045      1979.5955      8.8250131e+08  0.605793       0.5            3507925        2.255575       2981.5146      5963.0292      101.68806    
   7015900   326.76165      1.1368557     -10993610       973.04041     -10992637       959.1579       959.1579       959.1579       1020.4211      1979.5789      1020.4211      1979.5789      1020.4211      1979.5789      8.824098e+08   0.60585582     0.5            3507950        2.263908       3000.4801      6000.24        101.58517    
   7015950   326.75575      1.4690243     -10993695       973.02281     -10992722       959.13425      959.13425      959.13425      1020.4329      1979.5671      1020.4329      1979.5671      1020.4329      1979.5671      8.8234454e+08  0.60590063     0.5            3507975        2.274029       2469.8676      4940.2233      101.563      
   7016000   326.43393      0.99977896    -10993782       972.06449     -10992810       959.14353      959.14353      959.14353      1020.4282      1979.5718      1020.4282      1979.5718      1020.4282      1979.5718      8.8237016e+08  0.60588304     0.5            3508000        2.287699       1828.8222      3657.3769      101.69871    
   7016050   326.44428      0.52703492    -10993869       972.09533     -10992896       959.15292      959.15292      959.15292      1020.4235      1979.5765      1020.4235      1979.5765      1020.4235      1979.5765      8.8239606e+08  0.60586525     0.5            3508025        2.298331       2351.392       4702.784       101.69864    
[...]
   7502350   326.50847      1.5134003     -14465074       972.28647     -14464102       875.74581      875.74581      875.74581      1062.1271      1937.8729      1062.1271      1937.8729      1062.1271      1937.8729      6.7163637e+08  0.79598594     0.5            3751175        153.31388      1065.1896      2130.47        0.8168931    
   7502400   326.50521      0.90473098    -14465160       972.27675     -14464188       875.75207      875.75207      875.75207      1062.124       1937.876       1062.124       1937.876       1062.124       1937.876       6.7165077e+08  0.79596888     0.5            3751200        153.34796      733.41743      1466.8349      0.80157764   
   7502450   326.50943      0.11798196    -14464877       972.28933     -14463905       875.76326      875.76326      875.76326      1062.1184      1937.8816      1062.1184      1937.8816      1062.1184      1937.8816      6.7167651e+08  0.79593838     0.5            3751225        153.37448      942.64922      1885.2274      0.78621961   
   7502500   326.55732      3.0613192     -14467223       972.43192     -14466250       875.69283      875.69283      875.69283      1062.1536      1937.8464      1062.1536      1937.8464      1062.1536      1937.8464      6.7151448e+08  0.79613044     0.5            3751250        153.4222       523.95523      1047.9324      0.77096584   
   7502550   326.49616     -0.89310775    -14465048       972.24982     -14464075       875.77148      875.77148      875.77148      1062.1143      1937.8857      1062.1143      1937.8857      1062.1143      1937.8857      6.7169544e+08  0.79591595     0.5            3751275        153.45537      753.64765      1507.2499      0.75563394   
   7502600   326.51522     -0.072756807   -14467397       972.30656     -14466424       875.74516      875.74516      875.74516      1062.1274      1937.8726      1062.1274      1937.8726      1062.1274      1937.8726      6.7163486e+08  0.79598773     0.5            3751300        153.49624      611.69562      1223.4212      0.74033559   
   7502650   326.55863      3.2371485     -14467478       972.43585     -14466506       875.67011      875.67011      875.67011      1062.1649      1937.8351      1062.1649      1937.8351      1062.1649      1937.8351      6.7146221e+08  0.7961924      0.5            3751325        153.52036      1036.6562      2073.3123      0.72495298   
   7502700   326.52456      1.86836       -14467566       972.33438     -14466594       875.6922       875.6922       875.6922       1062.1539      1937.8461      1062.1539      1937.8461      1062.1539      1937.8461      6.7151303e+08  0.79613215     0.5            3751350        153.5529       768.26158      1536.4759      0.70960754   
   7502750   326.47772     -0.56038164    -14467652       972.19489     -14466680       875.7362       875.7362       875.7362       1062.1319      1937.8681      1062.1319      1937.8681      1062.1319      1937.8681      6.7161426e+08  0.79601215     0.5            3751375        153.58334      821.28778      1642.6295      0.69424916   
   7502800   326.46189     -1.0233493     -14467737       972.14776     -14466765       875.73943      875.73943      875.73943      1062.1303      1937.8697      1062.1303      1937.8697      1062.1303      1937.8697      6.7162168e+08  0.79600335     0.5            3751400        153.60882      981.00769      1962.0154      0.67886584   
   7502850   326.47542      0.57185295    -14467823       972.18804     -14466851       875.69998      875.69998      875.69998      1062.15        1937.85        1062.15        1937.85        1062.15        1937.85        6.7153093e+08  0.79611093     0.5            3751425        153.6249       1554.9198      3109.8395      0.66343987   
   7502900   326.49064      2.5166895     -14467906       972.23336     -14466934       875.65321      875.65321      875.65321      1062.1734      1937.8266      1062.1734      1937.8266      1062.1734      1937.8266      6.7142333e+08  0.79623851     0.5            3751450        153.63665      2128.3841      4256.7683      0.6479955    
   7502950   326.47886      2.8287506     -14467991       972.1983      -14467018       875.6403       875.6403       875.6403       1062.1799      1937.8201      1062.1799      1937.8201      1062.1799      1937.8201      6.7139364e+08  0.79627373     0.5            3751475        153.6471       2390.5144      4781.0289      0.63254658   
   7503000   326.37865      1.2744533     -14468078       971.89988     -14467106       875.66614      875.66614      875.66614      1062.1669      1937.8331      1062.1669      1937.8331      1062.1669      1937.8331      6.7145308e+08  0.79620323     0.5            3751500        153.66489      1405.5999      2811.1998      0.61712808   
   7503050   326.348       -0.77278621    -14468163       971.80862     -14467192       875.70213      875.70213      875.70213      1062.1489      1937.8511      1062.1489      1937.8511      1062.1489      1937.8511      6.7153588e+08  0.79610506     0.5            3751525        153.68113      1539.5985      3079.1969      0.60170305   
   7503100   326.40721      1.7862514     -14475625       971.98493     -14474653       875.63838      875.63838      875.63838      1062.1808      1937.8192      1062.1808      1937.8192      1062.1808      1937.8192      6.7138922e+08  0.79627896     0.5            3751550        153.69187      2326.4471      4653.3271      0.58625691   
   7503150   326.40235      1.1031003     -14468333       971.97046     -14467361       875.65019      875.65019      875.65019      1062.1749      1937.8251      1062.1749      1937.8251      1062.1749      1937.8251      6.714164e+08   0.79624673     0.5            3751575        153.70424      2022.4901      4044.653       0.5708177    
   7503200   326.41123      0.39966172    -14468419       971.99691     -14467447       875.65823      875.65823      875.65823      1062.1709      1937.8291      1062.1709      1937.8291      1062.1709      1937.8291      6.7143489e+08  0.7962248      0.5            3751600        153.71598      2127.8407      4255.6813      0.55537691   
   7503250   326.46008      2.643932      -14475880       972.14238     -14474908       875.60083      875.60083      875.60083      1062.1996      1937.8004      1062.1996      1937.8004      1062.1996      1937.8004      6.7130285e+08  0.79638142     0.5            3751625        153.72909      1908.1056      3816.2113      0.5399416    
   7503300   326.44355      0.36416353    -14475967       972.09313     -14474995       875.64158      875.64158      875.64158      1062.1792      1937.8208      1062.1792      1937.8208      1062.1792      1937.8208      6.713966e+08   0.79627022     0.5            3751650        153.73961      2376.4259      4752.8517      0.52449796   
   7503350   326.44924     -0.6689003     -14476052       972.1101      -14475080       875.65638      875.65638      875.65638      1062.1718      1937.8282      1062.1718      1937.8282      1062.1718      1937.8282      6.7143063e+08  0.79622986     0.5            3751675        153.7513       2137.6657      4275.6969      0.5090592    
   7503400   326.48054      0.1308392     -14476138       972.20331     -14475166       875.63311      875.63311      875.63311      1062.1834      1937.8166      1062.1834      1937.8166      1062.1834      1937.8166      6.7137711e+08  0.79629333     0.5            3751700        153.76821      1478.4151      2956.6554      0.49363793   
   7503450   326.52071      1.7926627     -14476222       972.32291     -14475250       875.59194      875.59194      875.59194      1062.204       1937.796       1062.204       1937.796       1062.204       1937.796       6.7128241e+08  0.79640566     0.5            3751725        153.78725      1312.8184      2625.6367      0.47822299   
   7503500   326.54277      2.5250925     -14476306       972.3886      -14475334       875.57006      875.57006      875.57006      1062.215       1937.785       1062.215       1937.785       1062.215       1937.785       6.7123209e+08  0.79646536     0.5            3751750        153.80363      1526.904       3053.8081      0.46279929   
   7503550   326.53909      1.6521312     -14476393       972.37765     -14475421       875.58153      875.58153      875.58153      1062.2092      1937.7908      1062.2092      1937.7908      1062.2092      1937.7908      6.7125847e+08  0.79643406     0.5            3751775        153.81314      2627.7065      5255.9655      0.44735545   
   7503600   326.52748      0.17837329    -14476479       972.34306     -14475507       875.60543      875.60543      875.60543      1062.1973      1937.8027      1062.1973      1937.8027      1062.1973      1937.8027      6.7131343e+08  0.79636886     0.5            3751800        153.82496      2115.4172      4230.8343      0.43191926   
   7503650   326.53078     -0.39209033    -14476565       972.35291     -14475592       875.61058      875.61058      875.61058      1062.1947      1937.8053      1062.1947      1937.8053      1062.1947      1937.8053      6.7132527e+08  0.79635482     0.5            3751825        153.83428      2681.2527      5361.9303      0.41647706   
   7503700   326.55408      0.41738855    -14476650       972.4223      -14475678       875.58715      875.58715      875.58715      1062.2064      1937.7936      1062.2064      1937.7936      1062.2064      1937.7936      6.7127139e+08  0.79641874     0.5            3751850        153.84526      2278.5272      4557.0543      0.40104037   
   7503750   326.58201      1.7263238     -14476735       972.50547     -14475762       875.55341      875.55341      875.55341      1062.2233      1937.7767      1062.2233      1937.7767      1062.2233      1937.7767      6.7119379e+08  0.79651081     0.5            3751875        153.85462      2670.3696      5340.7392      0.38560055   
   7503800   326.59557      2.2859594     -14476819       972.54584     -14475847       875.5352       875.5352       875.5352       1062.2324      1937.7676      1062.2324      1937.7676      1062.2324      1937.7676      6.7115192e+08  0.7965605      0.5            3751900        153.86398      2670.6548      5341.3097      0.37016194   
   7503850   326.58972      1.6568058     -14476906       972.52843     -14475933       875.5416       875.5416       875.5416       1062.2292      1937.7708      1062.2292      1937.7708      1062.2292      1937.7708      6.7116664e+08  0.79654304     0.5            3751925        153.87986      1573.8118      3147.6235      0.3547396    
   7503900   326.57593      0.48897718    -14476992       972.48736     -14476020       875.55911      875.55911      875.55911      1062.2204      1937.7796      1062.2204      1937.7796      1062.2204      1937.7796      6.7120691e+08  0.79649525     0.5            3751950        153.88957      2575.9918      5151.9835      0.33930352   
   7503950   326.57009     -0.17640691    -14477078       972.46997     -14476105       875.56623      875.56623      875.56623      1062.2169      1937.7831      1062.2169      1937.7831      1062.2169      1937.7831      6.7122328e+08  0.79647582     0.5            3751975        153.90143      2107.0375      4214.075       0.32387315   
   7504000   326.51823      0.17205552    -14477163       972.31553     -14476191       875.55243      875.55243      875.55243      1062.2238      1937.7762      1062.2238      1937.7762      1062.2238      1937.7762      6.7119154e+08  0.79651348     0.5            3752000        153.9158       1740.5834      3481.1669      0.30844849   
   7504050   326.54098      1.1695437     -14477248       972.38327     -14476276       875.52528      875.52528      875.52528      1062.2374      1937.7626      1062.2374      1937.7626      1062.2374      1937.7626      6.711291e+08   0.79658759     0.5            3752025        153.92816      2021.3454      4043.0177      0.29302025   
   7504100   326.56383      1.9803735     -14477333       972.45132     -14476360       875.50202      875.50202      875.50202      1062.249       1937.751       1062.249       1937.751       1062.249       1937.751       6.7107561e+08  0.79665109     0.5            3752050        153.93758      2655.6193      5310.6745      0.2775873    
   7504150   326.56958      2.0077448     -14477418       972.46845     -14476446       875.49493      875.49493      875.49493      1062.2525      1937.7475      1062.2525      1937.7475      1062.2525      1937.7475      6.7105932e+08  0.79667042     0.5            3752075        153.94799      2400.6146      4801.6902      0.26215726   
   7504200   326.55908      1.3031825     -14477505       972.43717     -14476532       875.50293      875.50293      875.50293      1062.2485      1937.7515      1062.2485      1937.7515      1062.2485      1937.7515      6.710777e+08   0.7966486      0.5            3752100        153.95851      2376.4259      4752.4         0.24672839   
   7504250   326.54193      0.426523      -14477591       972.38611     -14476618       875.51446      875.51446      875.51446      1062.2428      1937.7572      1062.2428      1937.7572      1062.2428      1937.7572      6.7110422e+08  0.79661712     0.5            3752125        153.97145      1931.6953      3863.6891      0.23130414   
   7504300   326.5276      -0.024910996   -14477676       972.34344     -14476704       875.51727      875.51727      875.51727      1062.2414      1937.7586      1062.2414      1937.7586      1062.2414      1937.7586      6.7111068e+08  0.79660946     0.5            3752150        153.98082      2670.6548      5340.7392      0.21587537   
   7504350   326.51964      0.19168083    -14477762       972.31973     -14476789       875.50639      875.50639      875.50639      1062.2468      1937.7532      1062.2468      1937.7532      1062.2468      1937.7532      6.7108566e+08  0.79663915     0.5            3752175        153.99216      2204.0025      4408.3936      0.20045039   
   7504400   326.515        0.88238728    -14477847       972.30592     -14476875       875.48584      875.48584      875.48584      1062.2571      1937.7429      1062.2571      1937.7429      1062.2571      1937.7429      6.710384e+08   0.79669526     0.5            3752200        154.00135      2718.869       5437.1466      0.18502366   
   7504450   326.50739      1.6072828     -14477932       972.28325     -14476959       875.46463      875.46463      875.46463      1062.2677      1937.7323      1062.2677      1937.7323      1062.2677      1937.7323      6.7098965e+08  0.79675315     0.5            3752225        154.01063      2695.1272      5390.2544      0.16959825   
   7504500   326.49167      1.9669885     -14478017       972.23643     -14477045       875.45094      875.45094      875.45094      1062.2745      1937.7255      1062.2745      1937.7255      1062.2745      1937.7255      6.7095816e+08  0.79679054     0.5            3752250        154.02602      1624.8538      3249.7075      0.1541802    
   7504550   326.46672      1.8071416     -14478102       972.16215     -14477130       875.44788      875.44788      875.44788      1062.2761      1937.7239      1062.2761      1937.7239      1062.2761      1937.7239      6.7095112e+08  0.79679889     0.5            3752275        154.03548      2641.5892      5283.1784      0.13875681   
   7504600   326.43562      1.2532315     -14478188       972.06952     -14477216       875.45287      875.45287      875.45287      1062.2736      1937.7264      1062.2736      1937.7264      1062.2736      1937.7264      6.7096259e+08  0.79678527     0.5            3752300        154.04653      2262.4434      4524.8869      0.12333589   
   7504650   326.40369      0.6022088     -14478274       971.97445     -14477302       875.45983      875.45983      875.45983      1062.2701      1937.7299      1062.2701      1937.7299      1062.2701      1937.7299      6.709786e+08   0.79676626     0.5            3752325        154.05579      2698.6183      5397.2366      0.1079146    
   7504700   326.37603      0.15716852    -14478359       971.89208     -14477387       875.46258      875.46258      875.46258      1062.2687      1937.7313      1062.2687      1937.7313      1062.2687      1937.7313      6.7098493e+08  0.79675875     0.5            3752350        154.06954      1819.1079      3638.2158      0.092497221  
   7504750   326.3556       0.096013985   -14478445       971.83124     -14477473       875.4575       875.4575       875.4575       1062.2713      1937.7287      1062.2713      1937.7287      1062.2713      1937.7287      6.7097323e+08  0.79677264     0.5            3752375        154.07991      2409.4063      4818.8126      0.077078496  
   7504800   326.34252      0.4174418     -14478530       971.7923      -14477558       875.44461      875.44461      875.44461      1062.2777      1937.7223      1062.2777      1937.7223      1062.2777      1937.7223      6.7094361e+08  0.79680782     0.5            3752400        154.09007      2460.1456      4920.2913      0.061660695  
   7504850   326.33458      0.96633104    -14478615       971.76864     -14477643       875.42709      875.42709      875.42709      1062.2865      1937.7135      1062.2865      1937.7135      1062.2865      1937.7135      6.7090334e+08  0.79685564     0.5            3752425        154.1025       2012.0724      4024.1449      0.046244624  
   7504900   326.32853      1.5132493     -14478700       971.75064     -14477728       875.40962      875.40962      875.40962      1062.2952      1937.7048      1062.2952      1937.7048      1062.2952      1937.7048      6.7086316e+08  0.79690337     0.5            3752450        154.11769      1645.1698      3290.3396      0.030829706  
   7504950   326.32159      1.8490522     -14478785       971.72996     -14477813       875.39643      875.39643      875.39643      1062.3018      1937.6982      1062.3018      1937.6982      1062.3018      1937.6982      6.7083284e+08  0.79693939     0.5            3752475        154.12937      2141.878       4283.756       0.015414478  
   7505000   326.24865      1.8618478     -14478870       971.51275     -14477898       875.3898       875.3898       875.3898       1062.3051      1937.6949      1062.3051      1937.6949      1062.3051      1937.6949      6.7081759e+08  0.7969575      0.5            3752500        154.14898      1274.9248      2549.8496      0            
Loop time of 154.15 on 1 procs for 500000 steps with 1000 atoms

Performance: 140.124 ns/day, 0.171 hours/ns, 3243.604 timesteps/s
78.8% CPU use with 1 MPI tasks x 1 OpenMP threads

MPI task timing breakdown:
Section |  min time  |  avg time  |  max time  |%varavg| %total
---------------------------------------------------------------
Pair    | 53.809     | 53.809     | 53.809     |   0.0 | 34.91
Neigh   | 0.10252    | 0.10252    | 0.10252    |   0.0 |  0.07
Comm    | 3.2953     | 3.2953     | 3.2953     |   0.0 |  2.14
Output  | 44.742     | 44.742     | 44.742     |   0.0 | 29.02
Modify  | 49.174     | 49.174     | 49.174     |   0.0 | 31.90
Other   |            | 3.027      |            |       |  1.96

Nlocal:           1000 ave        1000 max        1000 min
Histogram: 1 0 0 0 0 0 0 0 0 0
Nghost:           1020 ave        1020 max        1020 min
Histogram: 1 0 0 0 0 0 0 0 0 0
Neighs:           2944 ave        2944 max        2944 min
Histogram: 1 0 0 0 0 0 0 0 0 0

Total # of neighbors = 2944
Ave neighs/atom = 2.944
Neighbor list builds = 155
Dangerous builds = 0

# run_style
run_style verlet

# write restart
write_restart ${write_res}
write_restart equpmf1.17.res
System init for write_restart ...
  generated 0 of 1 mixed pair_coeff terms from geometric mixing rule

Total wall time: 0:02:34
