LAMMPS (24 Mar 2022)
OMP_NUM_THREADS environment is not set. Defaulting to 1 thread. (src/comm.cpp:98)
  using 1 OpenMP thread(s) per MPI task
# Read restart
read_restart ${read_res}
read_restart equpmf1.13.res
Reading restart file ...
  restart file = 24 Mar 2022, LAMMPS = 24 Mar 2022
  restoring atom style atomic from restart
  orthogonal box = (758.94737 758.94737 758.94737) to (2241.0526 2241.0526 2241.0526)
  1 by 1 by 1 MPI processor grid
  restoring pair style table from restart
  1000 atoms
  read_restart CPU = 0.003 seconds

# Settings

pair_style table spline 9941

pair_coeff 1 1 N20.txt DE_GNP 75.6
pair_coeff 2 2 N100.txt DE_GNP 115.92
WARNING: 3 of 9941 force values in table DE_GNP are inconsistent with -dE/dr.
WARNING:  Should only be flagged at inflection points (src/pair_table.cpp:465)
pair_coeff 1 2 mixed_potential.txt DE_GNP 95.66
WARNING: 1562 of 9941 force values in table DE_GNP are inconsistent with -dE/dr.
WARNING:  Should only be flagged at inflection points (src/pair_table.cpp:465)

#Neigh_list Calc Frequency

neigh_modify delay 0 every 1 check yes

# Saving Frequency (50 frames)

variable ts_save equal floor(${steps_equ}*0.01)
variable ts_save equal floor(5000*0.01)

# Dump
dump 1 all custom ${ts_save} ./equilibration/trajectory/trajectory_${usic}_${trial}.equ.custom type x y z ix iy iz
dump 1 all custom 50 ./equilibration/trajectory/trajectory_${usic}_${trial}.equ.custom type x y z ix iy iz
dump 1 all custom 50 ./equilibration/trajectory/trajectory_14_${trial}.equ.custom type x y z ix iy iz
dump 1 all custom 50 ./equilibration/trajectory/trajectory_14_1.equ.custom type x y z ix iy iz
dump_modify 1 first no sort id
dump 2 all cfg ${ts_save} ./equilibration/trajectory/ovito/dumpgen.tens_*.cfg mass type xs ys zs fx fy fz
dump 2 all cfg 50 ./equilibration/trajectory/ovito/dumpgen.tens_*.cfg mass type xs ys zs fx fy fz

# thermo_style
thermo_style custom step temp press pe ke etotal lx ly lz xlo xhi ylo yhi zlo zhi vol density dt time cpu tpcpu spcpu cpuremain

# run info
timestep ${ts}
timestep 0.5
thermo ${ts_save}
thermo 50

# fix

fix 1 all momentum 1000 linear 1 1 1 angular
variable T equal ${temp}
variable T equal 300
#fix 2 all nvt temp ${T} 370000 100.0

#run 100000

#unfix 2

#fix 3 all npt temp 370000 370000 $(100.0*dt) iso 1.0 1.0 $(1000.0*dt)

#run 200000

#unfix 3

#fix 4 all nvt temp 370000 ${T} 100.0

#run 200000

#unfix 4

fix 5 all npt temp ${T} ${T} $(100.0*dt) iso 1.0 1.0 $(1000.0*dt)
fix 5 all npt temp 300 ${T} $(100.0*dt) iso 1.0 1.0 $(1000.0*dt)
fix 5 all npt temp 300 300 $(100.0*dt) iso 1.0 1.0 $(1000.0*dt)
fix 5 all npt temp 300 300 50 iso 1.0 1.0 $(1000.0*dt)
fix 5 all npt temp 300 300 50 iso 1.0 1.0 500
Resetting global fix info from restart file:
  fix style: npt, fix ID: 5

run 200000
  generated 0 of 1 mixed pair_coeff terms from geometric mixing rule
All restart file global fix info was re-assigned
Neighbor list info ...
  update every 1 steps, delay 0 steps, check yes
  max neighbors/atom: 2000, page size: 100000
  master list distance cutoff = 117.92
  ghost atom cutoff = 117.92
  binsize = 58.96, bins = 26 26 26
  1 neighbor lists, perpetual/occasional/extra = 1 0 0
  (1) pair table, perpetual
      attributes: half, newton on
      pair build: half/bin/atomonly/newton
      stencil: half/bin/3d
      bin: standard
Per MPI rank memory allocation (min/avg/max) = 5.861 | 5.861 | 5.861 Mbytes
   Step          Temp          Press          PotEng         KinEng         TotEng           Lx             Ly             Lz            Xlo            Xhi            Ylo            Yhi            Zlo            Zhi           Volume        Density           Dt            Time           CPU           T/CPU          S/CPU         CPULeft    
   5805000   322.31117      1.094192      -2756500.7      959.78762     -2755540.9      1482.1053      1482.1053      1482.1053      758.94737      2241.0526      758.94737      2241.0526      758.94737      2241.0526      3.2556457e+09  0.16421108     0.5            2902500        0              0              0              0            
   5805050   322.25895      0.90708172    -2756588.3      959.63213     -2755628.7      1482.2767      1482.2767      1482.2767      758.86166      2241.1383      758.86166      2241.1383      758.86166      2241.1383      3.2567755e+09  0.16415412     0.5            2902525        0.016465       1518.1879      3036.1914      65.859531    
   5805100   322.43306      1.0630938     -2764010.9      960.1506      -2763050.8      1481.9959      1481.9959      1481.9959      759.00203      2240.998       759.00203      2240.998       759.00203      2240.998       3.2549254e+09  0.16424742     0.5            2902550        0.030336       1802.4513      3604.9027      60.645662    
   5805150   322.49554      1.0615003     -2756705        960.33664     -2755744.6      1481.9974      1481.9974      1481.9974      759.00128      2240.9987      759.00128      2240.9987      759.00128      2240.9987      3.2549353e+09  0.16424692     0.5            2902575        0.044128       1812.7764      3625.5529      58.79587     
   5805200   322.53968      1.0037099     -2756778.5      960.46808     -2755818        1482.0163      1482.0163      1482.0163      758.99186      2241.0081      758.99186      2241.0081      758.99186      2241.0081      3.2550595e+09  0.16424066     0.5            2902600        0.058216       1774.5599      3549.1198      58.159782    
   5805250   322.58881      0.97828731    -2756848.3      960.6144      -2755887.7      1481.9976      1481.9976      1481.9976      759.00119      2240.9988      759.00119      2240.9988      759.00119      2240.9988      3.2549364e+09  0.16424687     0.5            2902625        0.070556       2025.7678      4051.5355      56.376641    
   5805300   322.61854      0.93907114    -2756919.5      960.70294     -2755958.8      1481.9953      1481.9953      1481.9953      759.00235      2240.9977      759.00235      2240.9977      759.00235      2240.9977      3.2549212e+09  0.16424763     0.5            2902650        0.081181       2352.9412      4705.8824      54.041483    
   5805350   322.68866      0.94055638    -2766253.6      960.91173     -2765292.6      1481.88        1481.88        1481.88        759.06001      2240.94        759.06001      2240.94        759.06001      2240.94        3.2541614e+09  0.16428599     0.5            2902675        0.094011       1948.5581      3897.1161      53.628272    
   5805400   322.83463      1.1246243     -2768194.5      961.34639     -2767233.1      1481.6123      1481.6123      1481.6123      759.19384      2240.8062      759.19384      2240.8062      759.19384      2240.8062      3.2523985e+09  0.16437504     0.5            2902700        0.125386       796.81275      1593.6255      62.569111    
   5805450   322.73285      0.88036538    -2766394.7      961.04332     -2765433.7      1481.8587      1481.8587      1481.8587      759.07067      2240.9293      759.07067      2240.9293      759.07067      2240.9293      3.2540209e+09  0.16429308     0.5            2902725        0.138938       1844.7462      3689.4923      61.612171    
   5805500   322.869        1.1405525     -2768329        961.44874     -2767367.5      1481.5138      1481.5138      1481.5138      759.24311      2240.7569      759.24311      2240.7569      759.24311      2240.7569      3.2517495e+09  0.16440784     0.5            2902750        0.152701       1816.4644      3632.9289      60.928497    
   5805550   322.74427      0.92772684    -2768419.4      961.07732     -2767458.3      1481.7029      1481.7029      1481.7029      759.14853      2240.8515      759.14853      2240.8515      759.14853      2240.8515      3.2529953e+09  0.16434488     0.5            2902775        0.164617       2098.0195      4196.3911      59.696836    
   5805600   322.7415       0.93979079    -2768486.3      961.06909     -2767525.3      1481.6493      1481.6493      1481.6493      759.17533      2240.8247      759.17533      2240.8247      759.17533      2240.8247      3.2526422e+09  0.16436272     0.5            2902800        0.176394       2122.7817      4245.2029      58.622271    
   5805650   322.78638      1.1530666     -2768532        961.20272     -2767570.8      1481.3819      1481.3819      1481.3819      759.30906      2240.6909      759.30906      2240.6909      759.30906      2240.6909      3.2508811e+09  0.16445176     0.5            2902825        0.188903       1998.561       3997.4416      57.93571     
   5805700   322.60693      0.88327984    -2768627.6      960.66836     -2767666.9      1481.6298      1481.6298      1481.6298      759.1851       2240.8149      759.1851       2240.8149      759.1851       2240.8149      3.2525135e+09  0.16436922     0.5            2902850        0.20363        1697.5623      3395.1246      57.976939    
   5805750   322.6209       0.97458317    -2768687        960.70994     -2767726.3      1481.492       1481.492       1481.492       759.25402      2240.746       759.25402      2240.746       759.25402      2240.746       3.2516059e+09  0.1644151      0.5            2902875        0.214934       2211.6065      4422.8218      57.101331    
   5805800   322.63673      1.1491626     -2768736.1      960.75707     -2767775.3      1481.2645      1481.2645      1481.2645      759.36774      2240.6323      759.36774      2240.6323      759.36774      2240.6323      3.2501085e+09  0.16449085     0.5            2902900        0.228294       1871.2575      3742.515       56.845704    
   5805850   322.45357      0.85018221    -2768834        960.21168     -2767873.8      1481.5438      1481.5438      1481.5438      759.22811      2240.7719      759.22811      2240.7719      759.22811      2240.7719      3.2519471e+09  0.16439785     0.5            2902925        0.240989       1969.2792      3938.8688      56.462774    
   5805900   322.5247       1.0352795     -2768884        960.4235      -2767923.6      1481.3031      1481.3031      1481.3031      759.34843      2240.6516      759.34843      2240.6516      759.34843      2240.6516      3.2503627e+09  0.16447799     0.5            2902950        0.256916       1569.6616      3139.1261      56.836192    
   5805950   322.50397      1.1008086     -2768944.3      960.36176     -2767984        1481.1882      1481.1882      1481.1882      759.40589      2240.5941      759.40589      2240.5941      759.40589      2240.5941      3.2496063e+09  0.16451627     0.5            2902975        0.271213       1748.6186      3497.2372      56.826889    
   5806000   322.21231      0.82980746    -2769038.7      959.49325     -2768079.2      1481.4401      1481.4401      1481.4401      759.27995      2240.7201      759.27995      2240.7201      759.27995      2240.7201      3.2512645e+09  0.16443237     0.5            2903000        0.281979       2322.3409      4644.6818      56.114219    
   5806050   322.38215      1.1507651     -2769072.8      959.99899     -2768112.8      1481.041       1481.041       1481.041       759.47949      2240.5205      759.47949      2240.5205      759.47949      2240.5205      3.2486375e+09  0.16456533     0.5            2903025        0.293435       2182.0721      4364.1442      55.599325    
   5806100   322.28631      0.92299023    -2769165.1      959.7136      -2768205.4      1481.25        1481.25        1481.25        759.37498      2240.625       759.37498      2240.625       759.37498      2240.625       3.2500133e+09  0.16449567     0.5            2903050        0.305368       2095.0306      4190.0612      55.216448    
   5806150   322.38854      0.99098614    -2769225.5      960.01803     -2768265.5      1481.1279      1481.1279      1481.1279      759.43605      2240.5639      759.43605      2240.5639      759.43605      2240.5639      3.2492093e+09  0.16453637     0.5            2903075        0.31633        2280.6057      4561.2115      54.698102    
   5806200   322.44448      1.0857381     -2769282        960.1846      -2768321.8      1480.9723      1480.9723      1480.9723      759.51383      2240.4862      759.51383      2240.4862      759.51383      2240.4862      3.2481856e+09  0.16458823     0.5            2903100        0.327385       2261.4202      4523.2495      54.237113    
   5806250   322.39548      0.86411713    -2769372.5      960.0387      -2768412.5      1481.1774      1481.1774      1481.1774      759.41128      2240.5887      759.41128      2240.5887      759.41128      2240.5887      3.2495353e+09  0.16451986     0.5            2903125        0.340734       1872.7995      3745.5989      54.177024    
   5806300   322.56672      1.1614549     -2769406.9      960.54861     -2768446.3      1480.7873      1480.7873      1480.7873      759.60635      2240.3936      759.60635      2240.3936      759.60635      2240.3936      3.2469682e+09  0.16464994     0.5            2903150        0.352002       2218.8693      4437.3447      53.802458    
   5806350   322.43869      0.83028187    -2769510.2      960.16736     -2768550        1481.1215      1481.1215      1481.1215      759.43926      2240.5607      759.43926      2240.5607      759.43926      2240.5607      3.249167e+09   0.16453851     0.5            2903175        0.36459        1985.8607      3971.7213      53.649185    
   5806400   322.64056      1.1591319     -2769541.7      960.76848     -2768581        1480.6943      1480.6943      1480.6943      759.65287      2240.3471      759.65287      2240.3471      759.65287      2240.3471      3.2463562e+09  0.16468098     0.5            2903200        0.375517       2288.1201      4576.2402      53.270052    
   5806450   322.5029       0.86537172    -2769641.7      960.35857     -2768681.3      1480.9865      1480.9865      1480.9865      759.50673      2240.4933      759.50673      2240.4933      759.50673      2240.4933      3.2482791e+09  0.16458349     0.5            2903225        0.387212       2137.4829      4274.9658      53.021614    
   5806500   322.65722      1.0942296     -2769684.7      960.81811     -2768723.9      1480.6766      1480.6766      1480.6766      759.66171      2240.3383      759.66171      2240.3383      759.66171      2240.3383      3.24624e+09    0.16468687     0.5            2903250        0.420094       760.29439      1520.5888      55.592836    
   5806550   322.57145      0.96090153    -2769767.2      960.56269     -2768806.6      1480.7842      1480.7842      1480.7842      759.60791      2240.3921      759.60791      2240.3921      759.60791      2240.3921      3.2469477e+09  0.16465098     0.5            2903275        0.436513       1522.6262      3045.2525      55.888129    
   5806600   322.60358      0.9727083     -2769833.6      960.65836     -2768872.9      1480.7258      1480.7258      1480.7258      759.63712      2240.3629      759.63712      2240.3629      759.63712      2240.3629      3.2465635e+09  0.16467046     0.5            2903300        0.447623       2250.4276      4500.8552      55.5055      
   5806650   322.6252       1.0936963     -2769887.9      960.72276     -2768927.2      1480.5451      1480.5451      1480.5451      759.72743      2240.2726      759.72743      2240.2726      759.72743      2240.2726      3.2453756e+09  0.16473074     0.5            2903325        0.459054       2186.8439      4373.6879      55.184216    
   5806700   322.50219      0.8564202     -2769980.3      960.35645     -2769020        1480.7699      1480.7699      1480.7699      759.61504      2240.385       759.61504      2240.385       759.61504      2240.385       3.2468539e+09  0.16465574     0.5            2903350        0.471455       2015.9665      4031.9329      54.994189    
   5806750   322.61257      1.1566803     -2770016.1      960.68516     -2769055.4      1480.3919      1480.3919      1480.3919      759.80403      2240.196       759.80403      2240.196       759.80403      2240.196       3.2443682e+09  0.16478189     0.5            2903375        0.482528       2257.7441      4515.4881      54.663869    
   5806800   322.43068      0.88425899    -2770113.1      960.14351     -2769153        1480.6533      1480.6533      1480.6533      759.67337      2240.3266      759.67337      2240.3266      759.67337      2240.3266      3.2460866e+09  0.16469465     0.5            2903400        0.495178       1976.2846      3952.5692      54.52482     
   5806850   322.47481      1.0284801     -2770166.3      960.27491     -2769206.1      1480.4521      1480.4521      1480.4521      759.77396      2240.226       759.77396      2240.226       759.77396      2240.226       3.2447636e+09  0.16476181     0.5            2903425        0.50644        2219.8544      4440.103       54.244044    
   5806900   322.42289      1.0707183     -2770229.4      960.12031     -2769269.3      1480.3653      1480.3653      1480.3653      759.81736      2240.1826      759.81736      2240.1826      759.81736      2240.1826      3.244193e+09   0.16479079     0.5            2903450        0.519583       1902.1532      3804.017       54.173573    
   5806950   322.30028      0.88174928    -2770316.3      959.7552      -2769356.6      1480.5324      1480.5324      1480.5324      759.73381      2240.2662      759.73381      2240.2662      759.73381      2240.2662      3.2452916e+09  0.164735       0.5            2903475        0.530614       2266.3403      4532.6806      53.891538    
   5807000   322.20606      1.1202164     -2772252        959.47463     -2771292.5      1480.2113      1480.2113      1480.2113      759.89437      2240.1056      759.89437      2240.1056      759.89437      2240.1056      3.2431805e+09  0.16484223     0.5            2903500        0.543212       1984.442       3968.8839      53.778285    
   5807050   322.06086      0.87119736    -2770452.2      959.04226     -2769493.2      1480.4622      1480.4622      1480.4622      759.76891      2240.2311      759.76891      2240.2311      759.76891      2240.2311      3.24483e+09    0.16475843     0.5            2903525        0.555762       1992.0319      3984.3812      53.665114    
   5807100   322.18214      1.1273958     -2772386        959.40339     -2771426.6      1480.1214      1480.1214      1480.1214      759.93932      2240.0607      759.93932      2240.0607      759.93932      2240.0607      3.2425896e+09  0.16487227     0.5            2903550        0.569682       1795.977       3591.696       53.686029    
   5807150   322.05435      0.88016371    -2770586.1      959.02285     -2769627        1480.3698      1480.3698      1480.3698      759.8151       2240.1849      759.8151       2240.1849      759.8151       2240.1849      3.2442226e+09  0.16478928     0.5            2903575        0.581223       2166.1901      4332.3802      53.486309    
   5807200   322.1711       1.1223031     -2772521.1      959.37053     -2771561.8      1480.0428      1480.0428      1480.0428      759.9786       2240.0214      759.9786       2240.0214      759.9786       2240.0214      3.2420733e+09  0.16489853     0.5            2903600        0.594414       1895.2316      3790.7506      53.443402    
   5807250   322.05222      0.88903197    -2772612.9      959.0165      -2771653.9      1480.2569      1480.2569      1480.2569      759.87155      2240.1285      759.87155      2240.1285      759.87155      2240.1285      3.2434805e+09  0.16482699     0.5            2903625        0.605903       2175.9944      4351.6101      53.252317    
   5807300   322.17053      1.0841796     -2774552.7      959.36881     -2773593.3      1479.979       1479.979       1479.979       760.01052      2239.9895      760.01052      2239.9895      760.01052      2239.9895      3.2416537e+09  0.16491987     0.5            2903650        0.617445       2165.8148      4331.6296      53.073854    
   5807350   322.08058      0.91222291    -2772744.9      959.10097     -2771785.8      1480.145       1480.145       1480.145       759.92751      2240.0725      759.92751      2240.0725      759.92751      2240.0725      3.2427448e+09  0.16486438     0.5            2903675        0.628817       2198.382       4397.1506      52.887776    
   5807400   322.19975      1.0910153     -2774686        959.45584     -2773726.5      1479.8816      1479.8816      1479.8816      760.05922      2239.9408      760.05922      2239.9408      760.05922      2239.9408      3.2410137e+09  0.16495244     0.5            2903700        0.640667       2109.8827      4219.4093      52.748414    
   5807450   322.13767      0.9122088     -2774772        959.27098     -2773812.8      1480.0361      1480.0361      1480.0361      759.98194      2240.0181      759.98194      2240.0181      759.98194      2240.0181      3.2420293e+09  0.16490076     0.5            2903725        0.655893       1641.9283      3283.8566      52.886554    
   5807500   322.25451      1.0637689     -2774823        959.61891     -2773863.4      1479.819       1479.819       1479.819       760.09052      2239.9095      760.09052      2239.9095      760.09052      2239.9095      3.2406025e+09  0.16497337     0.5            2903750        0.66814        2041.3162      4082.6325      52.783218    
   5807550   322.23187      0.96879357    -2774900.3      959.55148     -2773940.7      1479.8792      1479.8792      1479.8792      760.06042      2239.9396      760.06042      2239.9396      760.06042      2239.9396      3.240998e+09   0.16495324     0.5            2903775        0.701048       759.69369      1519.3874      54.283264    
   5807600   322.30134      0.99887601    -2774964        959.75837     -2774004.3      1479.797       1479.797       1479.797       760.1015       2239.8985      760.1015       2239.8985      760.1015       2239.8985      3.2404582e+09  0.16498072     0.5            2903800        0.719194       1377.7141      2755.2764      54.603725    
   5807650   322.34512      1.0286412     -2775027.7      959.88871     -2774067.8      1479.7145      1479.7145      1479.7145      760.14274      2239.8573      760.14274      2239.8573      760.14274      2239.8573      3.2399164e+09  0.16500831     0.5            2903825        0.733388       1761.3076      3522.8634      54.616873    
   5807700   322.36306      0.95096286    -2775103        959.94215     -2774143.1      1479.7547      1479.7547      1479.7547      760.12264      2239.8774      760.12264      2239.8774      760.12264      2239.8774      3.2401805e+09  0.16499485     0.5            2903850        0.744607       2228.3626      4456.7252      54.411613    
   5807750   322.45592      1.0615132     -2775158.1      960.21866     -2774197.9      1479.5799      1479.5799      1479.5799      760.21006      2239.7899      760.21006      2239.7899      760.21006      2239.7899      3.2390322e+09  0.16505335     0.5            2903875        0.758628       1783.0397      3566.0795      54.414533    
   5807800   322.43935      0.93470618    -2775238.9      960.16932     -2774278.7      1479.6764      1479.6764      1479.6764      760.16178      2239.8382      760.16178      2239.8382      760.16178      2239.8382      3.2396663e+09  0.16502104     0.5            2903900        0.770903       2036.6599      4073.3198      54.293808    
   5807850   322.54202      1.059042      -2775292.9      960.47506     -2774332.5      1479.4877      1479.4877      1479.4877      760.25614      2239.7439      760.25614      2239.7439      760.25614      2239.7439      3.2384269e+09  0.1650842      0.5            2903925        0.781597       2337.7595      4675.9562      54.067454    
   5807900   322.51938      0.9584572     -2775371.1      960.40763     -2774410.7      1479.5546      1479.5546      1479.5546      760.22268      2239.7773      760.22268      2239.7773      760.22268      2239.7773      3.2388664e+09  0.1650618      0.5            2903950        0.792822       2227.1715      4453.9462      53.884761    
   5807950   322.58068      1.0132477     -2775432.9      960.59017     -2774472.3      1479.4473      1479.4473      1479.4473      760.27633      2239.7237      760.27633      2239.7237      760.27633      2239.7237      3.2381617e+09  0.16509772     0.5            2903975        0.805221       2016.2916      4032.5833      53.786167    
   5808000   322.43974      1.0203263     -2775499.8      960.1705      -2774539.7      1479.395       1479.395       1479.395       760.30249      2239.6975      760.30249      2239.6975      760.30249      2239.6975      3.2378182e+09  0.16511524     0.5            2904000        0.819548       1744.9571      3490.1578      53.817117    
   5808050   322.43683      0.9522054     -2775574.5      960.16181     -2774614.3      1479.4265      1479.4265      1479.4265      760.28675      2239.7132      760.28675      2239.7132      760.28675      2239.7132      3.2380249e+09  0.1651047      0.5            2904025        0.830299       2325.3651      4650.7302      53.615666    
   5808100   322.51163      1.0526462     -2775631.9      960.38455     -2774671.5      1479.2748      1479.2748      1479.2748      760.3626       2239.6374      760.3626       2239.6374      760.3626       2239.6374      3.2370289e+09  0.1651555      0.5            2904050        0.842917       1981.2966      3962.2791      53.539015    
   5808150   322.4829       0.97382815    -2775707.9      960.29901     -2774747.6      1479.3186      1479.3186      1479.3186      760.3407       2239.6593      760.3407       2239.6593      760.3407       2239.6593      3.2373165e+09  0.16514082     0.5            2904075        0.858311       1624.0094      3248.0187      53.63775     
   5808200   322.49111      0.98147236    -2775775        960.32346     -2774814.7      1479.2697      1479.2697      1479.2697      760.36516      2239.6348      760.36516      2239.6348      760.36516      2239.6348      3.2369952e+09  0.16515721     0.5            2904100        0.87187        1843.7938      3687.5876      53.620189    
   5808250   322.50168      1.0486462     -2775836.1      960.35494     -2774875.8      1479.1585      1479.1585      1479.1585      760.42076      2239.5792      760.42076      2239.5792      760.42076      2239.5792      3.2362653e+09  0.16519446     0.5            2904125        0.884621       1960.6305      3921.2611      53.553715    
   5808300   322.43402      0.96328547    -2775912.6      960.15344     -2774952.5      1479.2097      1479.2097      1479.2097      760.39514      2239.6049      760.39514      2239.6049      760.39514      2239.6049      3.2366017e+09  0.1651773      0.5            2904150        0.895537       2290.2162      4580.852       53.379552    
   5808350   322.41673      0.99014932    -2775978        960.10198     -2775017.9      1479.1429      1479.1429      1479.1429      760.42857      2239.5714      760.42857      2239.5714      760.42857      2239.5714      3.2361628e+09  0.1651997      0.5            2904175        0.908156       1981.1396      3961.9651      53.31023     
   5808400   322.39467      1.045814      -2776040.3      960.03628     -2775080.3      1479.0468      1479.0468      1479.0468      760.47661      2239.5234      760.47661      2239.5234      760.47661      2239.5234      3.2355323e+09  0.16523189     0.5            2904200        0.919199       2264.0826      4528.1652      53.151446    
   5808450   322.30836      0.96776963    -2776116        959.77925     -2775156.2      1479.0909      1479.0909      1479.0909      760.45457      2239.5454      760.45457      2239.5454      760.45457      2239.5454      3.2358215e+09  0.16521712     0.5            2904225        0.930575       2197.4158      4394.8317      53.015973    
   5808500   322.2674       0.98377607    -2776182.3      959.65729     -2775222.6      1479.0369      1479.0369      1479.0369      760.48153      2239.5185      760.48153      2239.5185      760.48153      2239.5185      3.2354676e+09  0.16523519     0.5            2904250        0.943338       1958.7871      3917.5742      52.961859    
   5808550   322.23542      1.0455042     -2776243.9      959.56207     -2775284.3      1478.9353      1478.9353      1478.9353      760.53236      2239.4676      760.53236      2239.4676      760.53236      2239.4676      3.2348005e+09  0.16526927     0.5            2904275        0.956616       1882.8137      3765.6274      52.937354    
   5808600   322.14234      0.97471999    -2776318.7      959.28488     -2775359.4      1478.9721      1478.9721      1478.9721      760.51394      2239.4861      760.51394      2239.4861      760.51394      2239.4861      3.2350423e+09  0.16525691     0.5            2904300        0.968185       2160.9474      4321.8947      52.820034    
   5808650   322.0917       0.98013695    -2776385.7      959.13409     -2775426.6      1478.9291      1478.9291      1478.9291      760.53546      2239.4645      760.53546      2239.4645      760.53546      2239.4645      3.2347599e+09  0.16527134     0.5            2904325        0.982885       1700.6803      3401.3605      52.873989    
   5808700   322.06071      1.0439893     -2776446.7      959.0418      -2775487.6      1478.8236      1478.8236      1478.8236      760.58818      2239.4118      760.58818      2239.4118      760.58818      2239.4118      3.2340681e+09  0.1653067      0.5            2904350        0.996175       1881.2552      3762.5103      52.851228    
   5808750   321.97021      0.97109022    -2776521.4      958.77232     -2775562.6      1478.8627      1478.8627      1478.8627      760.56867      2239.4313      760.56867      2239.4313      760.56867      2239.4313      3.234324e+09   0.16529362     0.5            2904375        1.009704       1847.8823      3695.7647      52.841281    
   5808800   321.93591      0.99287354    -2776586.4      958.67017     -2775627.8      1478.8003      1478.8003      1478.8003      760.59984      2239.4002      760.59984      2239.4002      760.59984      2239.4002      3.233915e+09   0.16531452     0.5            2904400        1.021176       2179.029       4358.4379      52.725033    
   5808850   321.90703      1.0354645     -2776649        958.58416     -2775690.4      1478.7138      1478.7138      1478.7138      760.64309      2239.3569      760.64309      2239.3569      760.64309      2239.3569      3.2333476e+09  0.16534353     0.5            2904425        1.033751       1988.0716      3976.1431      52.667702    
   5808900   321.8354       0.95755009    -2776723.9      958.37087     -2775765.5      1478.7576      1478.7576      1478.7576      760.62119      2239.3788      760.62119      2239.3788      760.62119      2239.3788      3.233635e+09   0.16532884     0.5            2904450        1.045446       2137.6657      4274.9658      52.56727     
   5808950   321.84698      1.0310325     -2776782.9      958.40536     -2775824.5      1478.6342      1478.6342      1478.6342      760.68292      2239.3171      760.68292      2239.3171      760.68292      2239.3171      3.2328251e+09  0.16537025     0.5            2904475        1.06016        1699.0621      3398.1242      52.618927    
   5809000   321.65802      0.98879027    -2776854        957.84266     -2775896.2      1478.6377      1478.6377      1478.6377      760.68117      2239.3188      760.68117      2239.3188      760.68117      2239.3188      3.2328481e+09  0.16536908     0.5            2904500        1.072268       2064.7506      4129.5012      52.54123     
   5809050   321.67624      0.9912583     -2776920.2      957.8969      -2775962.3      1478.5906      1478.5906      1478.5906      760.70472      2239.2953      760.70472      2239.2953      760.70472      2239.2953      3.2325392e+09  0.16538488     0.5            2904525        1.083068       2314.8148      4630.0583      52.401868    
   5809100   321.72066      1.0244593     -2776982.9      958.0292      -2776024.9      1478.5075      1478.5075      1478.5075      760.74624      2239.2538      760.74624      2239.2538      760.74624      2239.2538      3.2319946e+09  0.16541275     0.5            2904550        1.094369       2212.1936      4424.3872      52.28958     
   5809150   321.73446      0.96551771    -2777055.6      958.07029     -2776097.5      1478.5287      1478.5287      1478.5287      760.73567      2239.2643      760.73567      2239.2643      760.73567      2239.2643      3.2321331e+09  0.16540566     0.5            2904575        1.106228       2108.2813      4216.2071      52.206059    
   5809200   321.80731      1.0395293     -2777113.6      958.28723     -2776155.4      1478.3962      1478.3962      1478.3962      760.80188      2239.1981      760.80188      2239.1981      760.80188      2239.1981      3.2312648e+09  0.16545011     0.5            2904600        1.118955       1964.1735      3928.347       52.164756    
   5809250   321.80902      0.95845352    -2777188.7      958.2923      -2776230.4      1478.4423      1478.4423      1478.4423      760.77884      2239.2212      760.77884      2239.2212      760.77884      2239.2212      3.2315669e+09  0.16543464     0.5            2904625        1.131218       2038.8191      4077.6382      52.102662    
   5809300   321.89544      1.0415813     -2777245.6      958.54966     -2776287.1      1478.2966      1478.2966      1478.2966      760.85169      2239.1483      760.85169      2239.1483      760.85169      2239.1483      3.2306116e+09  0.16548356     0.5            2904650        1.143473       2039.8172      4079.9674      52.041409    
   5809350   321.89918      0.95896134    -2777320.9      958.56078     -2776362.4      1478.3443      1478.3443      1478.3443      760.82787      2239.1721      760.82787      2239.1721      760.82787      2239.1721      3.2309239e+09  0.16546757     0.5            2904675        1.156153       1971.7643      3943.2177      52.000397    
   5809400   321.99337      1.0402179     -2777377.9      958.84127     -2776419.1      1478.1986      1478.1986      1478.1986      760.90072      2239.0993      760.90072      2239.0993      760.90072      2239.0993      3.2299688e+09  0.1655165      0.5            2904700        1.167021       2300.3312      4600.6625      51.879477    
   5809450   322.09166      0.98962027    -2784823.1      959.13397     -2783863.9      1478.1585      1478.1585      1478.1585      760.92074      2239.0793      760.92074      2239.0793      760.92074      2239.0793      3.2297063e+09  0.16552995     0.5            2904725        1.178677       2144.6341      4289.2683      51.795658    
   5809500   322.21206      1.0102354     -2784887.1      959.49248     -2783927.6      1478.0826      1478.0826      1478.0826      760.95868      2239.0413      760.95868      2239.0413      760.95868      2239.0413      3.2292089e+09  0.16555544     0.5            2904750        1.189928       2222.2222      4444.4444      51.695848    
   5809550   322.30028      0.99024368    -2784955.8      959.75519     -2783996        1478.0549      1478.0549      1478.0549      760.97254      2239.0275      760.97254      2239.0275      760.97254      2239.0275      3.2290272e+09  0.16556476     0.5            2904775        1.205345       1621.4814      3242.9628      51.776982    
   5809600   322.3878       1.009122      -2785020.1      960.01581     -2784060.1      1477.9806      1477.9806      1477.9806      761.00971      2238.9903      761.00971      2238.9903      761.00971      2238.9903      3.2285401e+09  0.16558974     0.5            2904800        1.216345       2272.7273      4545.4545      51.668305    
   5809650   322.45284      0.99128956    -2785088.7      960.20951     -2784128.5      1477.9504      1477.9504      1477.9504      761.02482      2238.9752      761.02482      2238.9752      761.02482      2238.9752      3.2283421e+09  0.1655999      0.5            2904825        1.227856       2171.8356      4343.6713      51.583239    
   5809700   322.51909      1.0087959     -2785153.4      960.40677     -2784193        1477.8784      1477.8784      1477.8784      761.06078      2238.9392      761.06078      2238.9392      761.06078      2238.9392      3.2278707e+09  0.16562408     0.5            2904850        1.239753       2101.3701      4202.7402      51.515777    
   5809750   322.56463      0.99009436    -2785222.3      960.54238     -2784261.8      1477.8502      1477.8502      1477.8502      761.07488      2238.9251      761.07488      2238.9251      761.07488      2238.9251      3.2276861e+09  0.16563355     0.5            2904875        1.251113       2200.7042      4401.4085      51.427452    
   5809800   322.61364      1.0121838     -2785286.9      960.68833     -2784326.2      1477.775       1477.775       1477.775       761.11252      2238.8875      761.11252      2238.8875      761.11252      2238.8875      3.2271928e+09  0.16565887     0.5            2904900        1.263077       2089.6021      4179.5536      51.365213    
   5809850   322.63355      0.98435428    -2785357        960.74762     -2784396.3      1477.7589      1477.7589      1477.7589      761.12053      2238.8795      761.12053      2238.8795      761.12053      2238.8795      3.2270878e+09  0.16566426     0.5            2904925        1.275759       1971.2979      3942.2849      51.33294     
   5809900   322.66938      1.0196252     -2785420.4      960.85432     -2784459.6      1477.671       1477.671       1477.671       761.1645       2238.8355      761.1645       2238.8355      761.1645       2238.8355      3.2265118e+09  0.16569384     0.5            2904950        1.289447       1826.4173      3652.8346      51.341122    
   5809950   322.66056      0.97730247    -2785492.3      960.82806     -2784531.5      1477.6728      1477.6728      1477.6728      761.16361      2238.8364      761.16361      2238.8364      761.16361      2238.8364      3.2265234e+09  0.16569324     0.5            2904975        1.305079       1599.2835      3198.567       51.425504    
   5810000   322.54729      1.0227752     -2785554.9      960.49076     -2784594.4      1477.5758      1477.5758      1477.5758      761.21208      2238.7879      761.21208      2238.7879      761.21208      2238.7879      3.2258884e+09  0.16572585     0.5            2905000        1.315946       2300.7546      4601.5093      51.321972    
   5810050   322.53629      0.98255662    -2785626.6      960.458       -2784666.1      1477.576       1477.576       1477.576       761.21199      2238.788       761.21199      2238.788       761.21199      2238.788       3.2258896e+09  0.16572579     0.5            2905025        1.328652       1967.4195      3934.8391      51.291306    
   5810100   322.57058      1.0057286     -2785691.7      960.56011     -2784731.1      1477.5061      1477.5061      1477.5061      761.24696      2238.753       761.24696      2238.753       761.24696      2238.753       3.2254316e+09  0.16574933     0.5            2905050        1.341563       1936.3334      3872.6667      51.268827    
   5810150   322.57908      1.0098452     -2785758.8      960.58542     -2784798.2      1477.4579      1477.4579      1477.4579      761.27104      2238.729       761.27104      2238.729       761.27104      2238.729       3.2251161e+09  0.16576554     0.5            2905075        1.353277       2134.1984      4268.7612      51.201245    
   5810200   322.56798      0.97691481    -2785829.7      960.55238     -2784869.2      1477.4505      1477.4505      1477.4505      761.27473      2238.7253      761.27473      2238.7253      761.27473      2238.7253      3.2250678e+09  0.16576802     0.5            2905100        1.364046       2321.4783      4642.5255      51.099337    
   5810250   322.5885       1.0135931     -2787786.7      960.61346     -2786826.1      1477.3493      1477.3493      1477.3493      761.32536      2238.6746      761.32536      2238.6746      761.32536      2238.6746      3.2244048e+09  0.16580211     0.5            2905125        1.376412       2021.6723      4043.6717      51.058405    
   5810300   322.61438      1.0200833     -2789747        960.69054     -2788786.3      1477.2825      1477.2825      1477.2825      761.35875      2238.6413      761.35875      2238.6413      761.35875      2238.6413      3.2239676e+09  0.16582459     0.5            2905150        1.388022       2153.5016      4306.6322      50.99024     
   5810350   322.61533      0.97976436    -2789819        960.69335     -2788858.3      1477.2847      1477.2847      1477.2847      761.35767      2238.6423      761.35767      2238.6423      761.35767      2238.6423      3.2239817e+09  0.16582387     0.5            2905175        1.402579       1717.2689      3434.5377      51.03039     
   5810400   322.62491      1.000153      -2789885        960.72189     -2788924.3      1477.2238      1477.2238      1477.2238      761.38812      2238.6119      761.38812      2238.6119      761.38812      2238.6119      3.2235829e+09  0.16584438     0.5            2905200        1.413193       2355.6016      4711.2032      50.927361    
   5810450   322.61163      1.0218692     -2789951        960.68234     -2788990.3      1477.1625      1477.1625      1477.1625      761.41877      2238.5812      761.41877      2238.5812      761.41877      2238.5812      3.2231817e+09  0.16586502     0.5            2905225        1.425686       2000.9605      4002.2413      50.893138    
   5810500   322.55781      0.98006578    -2790023.1      960.52209     -2789062.6      1477.1675      1477.1675      1477.1675      761.41627      2238.5837      761.41627      2238.5837      761.41627      2238.5837      3.2232144e+09  0.16586334     0.5            2905250        1.437218       2167.8807      4335.3854      50.825325    
   5810550   322.52191      0.99349632    -2790089.8      960.41518     -2789129.4      1477.1157      1477.1157      1477.1157      761.44217      2238.5578      761.44217      2238.5578      761.44217      2238.5578      3.2228753e+09  0.16588079     0.5            2905275        1.448465       2223.0126      4443.6545      50.748787    
   5810600   322.48248      1.0264529     -2790154.5      960.29775     -2789194.2      1477.044       1477.044       1477.044       761.47799      2238.522       761.47799      2238.522       761.47799      2238.522       3.2224065e+09  0.16590493     0.5            2905300        1.46002        2163.3783      4329.0043      50.683621    
   5810650   322.40549      0.98572575    -2790226.4      960.0685      -2789266.3      1477.0484      1477.0484      1477.0484      761.47578      2238.5242      761.47578      2238.5242      761.47578      2238.5242      3.2224354e+09  0.16590344     0.5            2905325        1.473208       1895.8065      3791.613       50.675817    
   5810700   322.34808      0.98379208    -2790294.3      959.89754     -2789334.4      1477.0128      1477.0128      1477.0128      761.4936       2238.5064      761.4936       2238.5064      761.4936       2238.5064      3.2222021e+09  0.16591545     0.5            2905350        1.484275       2258.764       4517.9362      50.595618    
   5810750   322.3072       1.0286108     -2790357.6      959.7758      -2789397.8      1476.9283      1476.9283      1476.9283      761.53584      2238.4642      761.53584      2238.4642      761.53584      2238.4642      3.2216492e+09  0.16594392     0.5            2905375        1.495311       2265.3135      4530.627       50.515574    
   5810800   322.22981      0.99061865    -2790428.9      959.54535     -2789469.4      1476.9293      1476.9293      1476.9293      761.53534      2238.4647      761.53534      2238.4647      761.53534      2238.4647      3.2216558e+09  0.16594359     0.5            2905400        1.509425       1771.2909      3542.3309      50.53978     
   5810850   322.17523      0.97988915    -2790497.4      959.38283     -2789538.1      1476.9015      1476.9015      1476.9015      761.54924      2238.4508      761.54924      2238.4508      761.54924      2238.4508      3.2214739e+09  0.16595295     0.5            2905425        1.521431       2082.2922      4164.5844      50.49337     
   5810900   322.14957      1.0312159     -2790559.7      959.30642     -2789600.4      1476.8077      1476.8077      1476.8077      761.59615      2238.4038      761.59615      2238.4038      761.59615      2238.4038      3.2208599e+09  0.16598459     0.5            2905450        1.532532       2252.2523      4504.5045      50.417771    
   5810950   322.08347      0.98419754    -2790631.6      959.10958     -2789672.5      1476.8172      1476.8172      1476.8172      761.59141      2238.4086      761.59141      2238.4086      761.59141      2238.4086      3.220922e+09   0.16598139     0.5            2905475        1.543845       2209.6518      4419.3035      50.350202    
   5811000   321.90912      0.98763215    -2790698.5      958.59038     -2789739.9      1476.7728      1476.7728      1476.7728      761.61359      2238.3864      761.61359      2238.3864      761.61359      2238.3864      3.2206318e+09  0.16599635     0.5            2905500        1.558521       1703.4614      3406.9229      50.392244    
   5811050   321.91219      1.0325404     -2790761        958.59952     -2789802.4      1476.6838      1476.6838      1476.6838      761.6581       2238.3419      761.6581       2238.3419      761.6581       2238.3419      3.2200494e+09  0.16602637     0.5            2905525        1.572479       1791.0875      3582.4318      50.410362    
   5811100   321.88622      0.9686289     -2790834.4      958.52219     -2789875.9      1476.7112      1476.7112      1476.7112      761.6444       2238.3556      761.6444       2238.3556      761.6444       2238.3556      3.2202286e+09  0.16601713     0.5            2905550        1.583294       2311.6043      4622.7811      50.328048    
   5811150   321.91159      1.0097645     -2790897.3      958.59774     -2789938.7      1476.6258      1476.6258      1476.6258      761.68712      2238.3129      761.68712      2238.3129      761.68712      2238.3129      3.2196697e+09  0.16604595     0.5            2905575        1.596627       1875.0469      3750.0938      50.326265    
   5811200   321.9074       1.0186887     -2790963.3      958.58527     -2790004.7      1476.5746      1476.5746      1476.5746      761.71272      2238.2873      761.71272      2238.2873      761.71272      2238.2873      3.2193349e+09  0.16606322     0.5            2905600        1.610006       1868.6         3737.4794      50.325734    
   5811250   321.87847      0.96258084    -2791035.8      958.49913     -2790077.3      1476.5934      1476.5934      1476.5934      761.70329      2238.2967      761.70329      2238.2967      761.70329      2238.2967      3.2194581e+09  0.16605686     0.5            2905625        1.622552       1992.667       3985.0163      50.299205    
   5811300   321.91175      1.0238592     -2792989.5      958.59821     -2792030.9      1476.4654      1476.4654      1476.4654      761.7673       2238.2327      761.7673       2238.2327      761.7673       2238.2327      3.2186209e+09  0.16610006     0.5            2905650        1.633332       2319.3246      4638.6492      50.218539    
   5811350   321.91752      0.98113735    -2793060.7      958.61541     -2792102.1      1476.4692      1476.4692      1476.4692      761.76542      2238.2346      761.76542      2238.2346      761.76542      2238.2346      3.2186454e+09  0.16609879     0.5            2905675        1.644556       2227.3699      4454.7398      50.152544    
   5811400   322.01519      0.99393908    -2800499.8      958.90624     -2799540.9      1476.3657      1476.3657      1476.3657      761.81716      2238.1828      761.81716      2238.1828      761.81716      2238.1828      3.2179688e+09  0.16613372     0.5            2905700        1.658647       1774.1821      3548.3642      50.174132    
   5811450   322.08893      0.99493396    -2800566.6      959.12583     -2799607.5      1476.3201      1476.3201      1476.3201      761.83993      2238.1601      761.83993      2238.1601      761.83993      2238.1601      3.217671e+09   0.16614909     0.5            2905725        1.671142       2000.6402      4001.6006      50.147275    
   5811500   322.14656      1.0147198     -2800631.4      959.29746     -2799672.1      1476.253       1476.253       1476.253       761.87351      2238.1265      761.87351      2238.1265      761.87351      2238.1265      3.2172318e+09  0.16617177     0.5            2905750        1.682117       2277.9043      4555.3936      50.075418    
   5811550   322.17117      0.97925466    -2800702        959.37072     -2799742.6      1476.2468      1476.2468      1476.2468      761.87658      2238.1234      761.87658      2238.1234      761.87658      2238.1234      3.2171917e+09  0.16617384     0.5            2905775        1.693221       2251.4409      4503.2874      50.008243    
   5811600   322.22614      1.0223179     -2800764.2      959.53442     -2799804.7      1476.1524      1476.1524      1476.1524      761.9238       2238.0762      761.9238       2238.0762      761.9238       2238.0762      3.2165743e+09  0.16620574     0.5            2905800        1.706746       1848.4288      3696.5844      50.012918    
   5811650   322.2352       0.98038476    -2800835.5      959.5614      -2799875.9      1476.153       1476.153       1476.153       761.92349      2238.0765      761.92349      2238.0765      761.92349      2238.0765      3.2165784e+09  0.16620553     0.5            2905825        1.719594       1945.8281      3891.9592      49.997577    
   5811700   322.28329      1.0131093     -2800898.8      959.7046      -2799939.1      1476.0697      1476.0697      1476.0697      761.96513      2238.0349      761.96513      2238.0349      761.96513      2238.0349      3.2160339e+09  0.16623367     0.5            2905850        1.731902       2031.1992      4062.0684      49.966752    
   5811750   322.29748      0.99645183    -2800967.5      959.74687     -2800007.7      1476.0421      1476.0421      1476.0421      761.97894      2238.0211      761.97894      2238.0211      761.97894      2238.0211      3.2158535e+09  0.16624299     0.5            2905875        1.746333       1732.3817      3465.0035      49.996924    
   5811800   322.32238      0.99203661    -2801034.9      959.82099     -2800075.1      1476.0012      1476.0012      1476.0012      761.9994       2238.0006      761.9994       2238.0006      761.9994       2238.0006      3.215586e+09   0.16625682     0.5            2905900        1.75867        2026.5888      4052.8492      49.966975    
   5811850   322.34903      1.0191161     -2801099        959.90035     -2800139.1      1475.9258      1475.9258      1475.9258      762.03711      2237.9629      762.03711      2237.9629      762.03711      2237.9629      3.2150931e+09  0.16628231     0.5            2905925        1.773305       1708.117       3416.4674      50.00208     
   5811900   322.33942      0.97342113    -2801170.8      959.87174     -2800211        1475.9319      1475.9319      1475.9319      762.03406      2237.9659      762.03406      2237.9659      762.03406      2237.9659      3.215133e+09   0.16628025     0.5            2905950        1.785266       2090.1262      4179.903       49.961631    
   5811950   322.36821      1.026881      -2801232.4      959.95748     -2800272.4      1475.8288      1475.8288      1475.8288      762.08562      2237.9144      762.08562      2237.9144      762.08562      2237.9144      3.2144591e+09  0.16631511     0.5            2905975        1.799288       1782.9126      3565.8251      49.978839    
   5812000   322.18577      0.9816759     -2801304.3      959.4142      -2800344.8      1475.8351      1475.8351      1475.8351      762.08244      2237.9176      762.08244      2237.9176      762.08244      2237.9176      3.2145007e+09  0.16631295     0.5            2906000        1.813547       1753.2786      3506.5573      50.002192    
   5812050   322.20482      1.0027985     -2801369.2      959.47093     -2800409.7      1475.7687      1475.7687      1475.7687      762.11564      2237.8844      762.11564      2237.8844      762.11564      2237.8844      3.2140668e+09  0.16633541     0.5            2906025        1.826361       1950.9911      3902.2867      49.985353    
   5812100   322.22033      1.0144968     -2801435.1      959.51712     -2800475.5      1475.7128      1475.7128      1475.7128      762.14361      2237.8564      762.14361      2237.8564      762.14361      2237.8564      3.2137013e+09  0.16635433     0.5            2906050        1.84044        1775.8204      3551.3886      50.002995    
   5812150   322.20841      0.97241532    -2801506.5      959.48163     -2800547        1475.7161      1475.7161      1475.7161      762.14197      2237.858       762.14197      2237.858       762.14197      2237.858       3.2137228e+09  0.16635322     0.5            2906075        1.853353       1935.8835      3872.0669      49.988743    
   5812200   322.23124      1.0321097     -2801567.3      959.54961     -2800607.7      1475.6069      1475.6069      1475.6069      762.19657      2237.8034      762.19657      2237.8034      762.19657      2237.8034      3.2130094e+09  0.16639015     0.5            2906100        1.866191       1947.3438      3894.6876      49.972501    
   5812250   322.18928      0.97299051    -2801640.4      959.42466     -2800681        1475.6287      1475.6287      1475.6287      762.18567      2237.8143      762.18567      2237.8143      762.18567      2237.8143      3.2131518e+09  0.16638277     0.5            2906125        1.878909       1965.8725      3931.4358      49.953117    
   5812300   322.19869      1.014116      -2801703        959.45268     -2800743.6      1475.5392      1475.5392      1475.5392      762.23042      2237.7696      762.23042      2237.7696      762.23042      2237.7696      3.2125671e+09  0.16641306     0.5            2906150        1.892335       1861.92        3723.84        49.952539    
   5812350   322.1721       1.0027176     -2801771.1      959.37351     -2800811.7      1475.5074      1475.5074      1475.5074      762.24629      2237.7537      762.24629      2237.7537      762.24629      2237.7537      3.2123598e+09  0.16642379     0.5            2906175        1.904779       2009.0003      4018.3236      49.925995    
   5812400   322.15325      0.98080192    -2801840.1      959.31737     -2800880.8      1475.487       1475.487       1475.487       762.25652      2237.7435      762.25652      2237.7435      762.25652      2237.7435      3.2122262e+09  0.16643072     0.5            2906200        1.91935        1715.7367      3431.238       49.955078    
   5812450   322.16333      1.0314599     -2801901.5      959.34738     -2800942.2      1475.3853      1475.3853      1475.3853      762.30737      2237.6926      762.30737      2237.6926      762.30737      2237.6926      3.2115621e+09  0.16646513     0.5            2906225        1.930203       2303.7228      4607.4456      49.887379    
   5812500   322.12547      0.96328747    -2801975.3      959.23463     -2801016.1      1475.4155      1475.4155      1475.4155      762.29226      2237.7077      762.29226      2237.7077      762.29226      2237.7077      3.2117595e+09  0.1664549      0.5            2906250        1.941752       2164.6896      4329.3792      49.838353    
   5812550   322.16012      1.0335538     -2802034.7      959.33783     -2801075.4      1475.2911      1475.2911      1475.2911      762.35444      2237.6456      762.35444      2237.6456      762.35444      2237.6456      3.2109473e+09  0.16649701     0.5            2906275        1.953657       2099.7816      4199.5632      49.798923    
   5812600   322.13311      0.97780428    -2802107.2      959.2574      -2801147.9      1475.3066      1475.3066      1475.3066      762.34669      2237.6533      762.34669      2237.6533      762.34669      2237.6533      3.2110485e+09  0.16649176     0.5            2906300        1.964355       2336.8854      4673.7708      49.729274    
   5812650   322.16929      1.0161449     -2802169.9      959.36513     -2801210.5      1475.217       1475.217       1475.217       762.39148      2237.6085      762.39148      2237.6085      762.39148      2237.6085      3.2104637e+09  0.16652209     0.5            2906325        1.977063       1967.2647      3934.8391      49.710909    
   5812700   322.15707      0.96252592    -2802242        959.32876     -2801282.7      1475.2293      1475.2293      1475.2293      762.38536      2237.6146      762.38536      2237.6146      762.38536      2237.6146      3.2105435e+09  0.16651794     0.5            2906350        1.98954        2003.8474      4007.3736      49.686874    
   5812750   322.22952      1.0434193     -2802667.5      959.54448     -2801707.9      1475.0782      1475.0782      1475.0782      762.46091      2237.5391      762.46091      2237.5391      762.46091      2237.5391      3.2095571e+09  0.16656912     0.5            2906375        2.004032       1724.9707      3450.1794      49.712972    
   5812800   322.23092      0.96765881    -2802742.1      959.54865     -2801782.5      1475.1144      1475.1144      1475.1144      762.44282      2237.5572      762.44282      2237.5572      762.44282      2237.5572      3.2097933e+09  0.16655687     0.5            2906400        2.015004       2278.5272      4556.639       49.651839    
   5812850   322.28913      1.0264859     -2802802.9      959.72199     -2801843.1      1475.0022      1475.0022      1475.0022      762.49889      2237.5011      762.49889      2237.5011      762.49889      2237.5011      3.2090613e+09  0.16659486     0.5            2906425        2.028144       1902.5875      3805.4646      49.644364    
   5812900   322.29938      0.95164182    -2802877.3      959.75252     -2801917.6      1475.037       1475.037       1475.037       762.4815       2237.5185      762.4815       2237.5185      762.4815       2237.5185      3.2092884e+09  0.16658307     0.5            2906450        2.040868       1964.9454      3929.5819      49.626725    
   5812950   322.38596      1.0516625     -2802934.2      960.01034     -2801974.2      1474.882       1474.882       1474.882       762.559        2237.441       762.559        2237.441       762.559        2237.441       3.2082768e+09  0.1666356      0.5            2906475        2.053757       1939.488       3878.976       49.613158    
   5813000   322.23386      0.97154934    -2803009.5      959.55741     -2802049.9      1474.9227      1474.9227      1474.9227      762.53867      2237.4613      762.53867      2237.4613      762.53867      2237.4613      3.2085421e+09  0.16662182     0.5            2906500        2.068022       1752.5412      3504.8367      49.632624    
   5813050   322.29769      0.98548372    -2803075.2      959.74748     -2802115.5      1474.8627      1474.8627      1474.8627      762.56866      2237.4313      762.56866      2237.4313      762.56866      2237.4313      3.2081507e+09  0.16664215     0.5            2906525        2.079437       2190.2926      4380.9691      49.583642    
   5813100   322.37834      1.0522963     -2803135.8      959.98763     -2802175.8      1474.7479      1474.7479      1474.7479      762.62603      2237.374       762.62603      2237.374       762.62603      2237.374       3.207402e+09   0.16668104     0.5            2906550        2.090557       2247.9993      4495.9986      49.528182    
   5813150   322.37133      0.94661404    -2803213.6      959.96676     -2802253.6      1474.8166      1474.8166      1474.8166      762.59172      2237.4083      762.59172      2237.4083      762.59172      2237.4083      3.2078497e+09  0.16665778     0.5            2906575        2.102019       2181.1202      4362.2404      49.48134     
   5813200   322.43087      1.007929      -2803275.2      960.14408     -2802315        1474.7103      1474.7103      1474.7103      762.64487      2237.3551      762.64487      2237.3551      762.64487      2237.3551      3.2071562e+09  0.16669382     0.5            2906600        2.112977       2281.4382      4563.2929      49.423094    
   5813250   322.44926      1.0492398     -2803338.6      960.19884     -2802378.4      1474.6266      1474.6266      1474.6266      762.68668      2237.3133      762.68668      2237.3133      762.68668      2237.3133      3.2066107e+09  0.16672218     0.5            2906625        2.126695       1822.4231      3644.8462      49.429594    
   5813300   322.39279      0.94084       -2803416.7      960.03068     -2802456.6      1474.699       1474.699       1474.699       762.65052      2237.3495      762.65052      2237.3495      762.65052      2237.3495      3.2070825e+09  0.16669765     0.5            2906650        2.137732       2265.1083      4530.2165      49.373929    
   5813350   322.44184      1.0578791     -2805366.1      960.17675     -2804405.9      1474.521       1474.521       1474.521       762.73951      2237.2605      762.73951      2237.2605      762.73951      2237.2605      3.2059213e+09  0.16675803     0.5            2906675        2.148801       2258.5599      4516.7118      49.319555    
   5813400   322.35624      0.94374475    -2803551.6      959.92185     -2802591.7      1474.618       1474.618       1474.618       762.69101      2237.309       762.69101      2237.309       762.69101      2237.309       3.2065541e+09  0.16672512     0.5            2906700        2.161591       1954.6521      3909.3041      49.304907    
   5813450   322.38611      1.061148      -2805501.1      960.01079     -2804541        1474.441       1474.441       1474.441       762.77948      2237.2205      762.77948      2237.2205      762.77948      2237.2205      3.2054e+09     0.16678515     0.5            2906725        2.173822       2043.9866      4088.3074      49.277632    
   5813500   322.31005      1.0004678     -2805574.7      959.78428     -2804614.9      1474.4656      1474.4656      1474.4656      762.7672       2237.2328      762.7672       2237.2328      762.7672       2237.2328      3.2055601e+09  0.16677682     0.5            2906750        2.187139       1877.2997      3754.3175      49.275023    
   5813550   322.23748      0.93667988    -2805648.2      959.5682      -2804688.7      1474.4934      1474.4934      1474.4934      762.7533       2237.2467      762.7533       2237.2467      762.7533       2237.2467      3.2057415e+09  0.16676738     0.5            2906775        2.19846        2208.2855      4416.571       49.227572    
   5813600   322.23707      1.0588381     -2805703.8      959.56696     -2804744.2      1474.3289      1474.3289      1474.3289      762.83554      2237.1645      762.83554      2237.1645      762.83554      2237.1645      3.2046688e+09  0.1668232      0.5            2906800        2.210242       2121.8808      4244.1219      49.190779    
   5813650   322.14531      1.0056888     -2805776.5      959.29373     -2804817.2      1474.3458      1474.3458      1474.3458      762.82709      2237.1729      762.82709      2237.1729      762.82709      2237.1729      3.2047791e+09  0.16681746     0.5            2906825        2.224757       1722.3562      3444.7124      49.214755    
   5813700   322.06136      0.93462043    -2805850.5      959.04373     -2804891.4      1474.3814      1474.3814      1474.3814      762.80931      2237.1907      762.80931      2237.1907      762.80931      2237.1907      3.2050109e+09  0.16680539     0.5            2906850        2.235916       2240.3441      4480.6882      49.164496    
   5813750   322.06517      1.0684131     -2805904.3      959.05509     -2804945.2      1474.2017      1474.2017      1474.2017      762.89913      2237.1009      762.89913      2237.1009      762.89913      2237.1009      3.2038395e+09  0.16686638     0.5            2906875        2.246824       2291.8959      4583.3715      49.109197    
   5813800   321.96284      0.98262604    -2805980        958.75035     -2805021.3      1474.2529      1474.2529      1474.2529      762.87357      2237.1264      762.87357      2237.1264      762.87357      2237.1264      3.2041728e+09  0.16684903     0.5            2906900        2.259851       1919.0911      3838.1822      49.100442    
   5813850   321.90994      0.95424292    -2806049.7      958.59282     -2805091.1      1474.2431      1474.2431      1474.2431      762.87845      2237.1215      762.87845      2237.1215      762.87845      2237.1215      3.2041092e+09  0.16685234     0.5            2906925        2.273408       1844.0658      3688.1316      49.103087    
   5813900   321.91742      1.0789146     -2806103.6      958.6151      -2805145        1474.0691      1474.0691      1474.0691      762.96546      2237.0345      762.96546      2237.0345      762.96546      2237.0345      3.2029747e+09  0.16691144     0.5            2906950        2.288243       1685.2039      3370.4078      49.132991    
   5813950   321.80667      0.93313258    -2806185.1      958.28531     -2805226.8      1474.1845      1474.1845      1474.1845      762.90773      2237.0923      762.90773      2237.0923      762.90773      2237.0923      3.2037274e+09  0.16687222     0.5            2906975        2.302846       1711.977       3423.954       49.157443    
   5814000   321.69417      1.0218556     -2806242.8      957.95031     -2805284.9      1474.0469      1474.0469      1474.0469      762.97653      2237.0235      762.97653      2237.0235      762.97653      2237.0235      3.2028303e+09  0.16691896     0.5            2907000        2.313531       2339.7286      4679.8952      49.098311    
   5814050   321.6761       1.0313443     -2806308.1      957.89649     -2805350.2      1473.9937      1473.9937      1473.9937      763.00313      2236.9969      763.00313      2236.9969      763.00313      2236.9969      3.2024836e+09  0.16693703     0.5            2907025        2.326116       1986.4919      3972.9837      49.079805    
   5814100   321.64988      0.92887595    -2806384.8      957.81842     -2805427        1474.0625      1474.0625      1474.0625      762.96877      2237.0312      762.96877      2237.0312      762.96877      2237.0312      3.2029315e+09  0.16691369     0.5            2907050        2.337836       2133.2878      4266.2116      49.043217    
   5814150   321.73728      1.0871651     -2806434.4      958.07869     -2805476.4      1473.8443      1473.8443      1473.8443      763.07787      2236.9221      763.07787      2236.9221      763.07787      2236.9221      3.2015095e+09  0.16698783     0.5            2907075        2.351789       1791.7294      3583.4588      49.053477    
   5814200   321.67029      0.92170571    -2806517.9      957.8792      -2805560        1473.9822      1473.9822      1473.9822      763.00892      2236.9911      763.00892      2236.9911      763.00892      2236.9911      3.2024081e+09  0.16694097     0.5            2907100        2.362556       2321.6939      4642.0945      48.997481    
   5814250   321.76037      1.0487849     -2806571        958.14742     -2805612.8      1473.7966      1473.7966      1473.7966      763.10172      2236.8983      763.10172      2236.8983      763.10172      2236.8983      3.2011985e+09  0.16700405     0.5            2907125        2.376167       1836.7497      3674.5793      49.000458    
   5814300   321.7383       0.99338728    -2806643        958.08172     -2805684.9      1473.8125      1473.8125      1473.8125      763.09376      2236.9062      763.09376      2236.9062      763.09376      2236.9062      3.2013023e+09  0.16699863     0.5            2907150        2.387324       2240.7457      4481.0898      48.953018    
   5814350   321.7597       0.96094355    -2806712.4      958.14544     -2805754.2      1473.8029      1473.8029      1473.8029      763.09856      2236.9014      763.09856      2236.9014      763.09856      2236.9014      3.2012398e+09  0.1670019      0.5            2907175        2.399044       2133.1058      4266.5756      48.917446    
   5814400   321.82513      1.0777251     -2806766.2      958.34029     -2805807.9      1473.6284      1473.6284      1473.6284      763.18581      2236.8142      763.18581      2236.8142      763.18581      2236.8142      3.2001028e+09  0.16706123     0.5            2907200        2.411214       2054.4005      4108.4634      48.891232    
   5814450   321.76709      0.90160927    -2806850.4      958.16746     -2805892.3      1473.7775      1473.7775      1473.7775      763.11126      2236.8887      763.11126      2236.8887      763.11126      2236.8887      3.2010743e+09  0.16701053     0.5            2907225        2.424495       1882.2466      3764.4933      48.887629    
   5814500   321.88092      1.0925374     -2806897.1      958.50642     -2805938.6      1473.5224      1473.5224      1473.5224      763.23879      2236.7612      763.23879      2236.7612      763.23879      2236.7612      3.1994125e+09  0.16709727     0.5            2907250        2.439093       1712.6807      3425.3614      48.910273    
   5814550   321.8145       0.94412576    -2806978.8      958.30862     -2806020.5      1473.6404      1473.6404      1473.6404      763.17981      2236.8202      763.17981      2236.8202      763.17981      2236.8202      3.200181e+09   0.16705715     0.5            2907275        2.453981       1679.0919      3358.1839      48.938351    
   5814600   321.86783      0.99505119    -2807040.1      958.46745     -2806081.6      1473.5404      1473.5404      1473.5404      763.22982      2236.7702      763.22982      2236.7702      763.22982      2236.7702      3.1995295e+09  0.16709117     0.5            2907300        2.464644       2344.5559      4689.1119      48.882165    
   5814650   321.89486      1.0691391     -2807098.6      958.54793     -2806140.1      1473.4162      1473.4162      1473.4162      763.29188      2236.7081      763.29188      2236.7081      763.29188      2236.7081      3.1987209e+09  0.1671334      0.5            2907325        2.476921       2036.3281      4072.9879      48.858269    
   5814700   321.82346      0.89136328    -2807182.6      958.33532     -2806224.3      1473.5653      1473.5653      1473.5653      763.21736      2236.7826      763.21736      2236.7826      763.21736      2236.7826      3.1996918e+09  0.16708269     0.5            2907350        2.489323       2015.8039      4031.2828      48.836964    
   5814750   321.92579      1.1007604     -2807227.9      958.64004     -2806269.2      1473.2955      1473.2955      1473.2955      763.35223      2236.6478      763.35223      2236.6478      763.35223      2236.6478      3.197935e+09   0.16717448     0.5            2907375        2.500539       2228.9586      4457.9173      48.792627    
   5814800   321.84262      0.95673896    -2807309.1      958.39236     -2806350.7      1473.4073      1473.4073      1473.4073      763.29634      2236.7037      763.29634      2236.7037      763.29634      2236.7037      3.1986629e+09  0.16713643     0.5            2907400        2.511601       2260.1935      4520.3869      48.745601    
   5814850   321.89916      1.0297749     -2807368.1      958.56072     -2806409.5      1473.2852      1473.2852      1473.2852      763.35739      2236.6426      763.35739      2236.6426      763.35739      2236.6426      3.1978678e+09  0.16717799     0.5            2907425        2.524302       1968.3489      3936.6979      48.73058     
   5814900   321.84813      0.89266748    -2807447.6      958.40877     -2806489.2      1473.3892      1473.3892      1473.3892      763.30538      2236.6946      763.30538      2236.6946      763.30538      2236.6946      3.1985452e+09  0.16714259     0.5            2907450        2.535284       2276.2451      4552.9048      48.682613    
   5814950   321.90213      0.9776467     -2807505.8      958.56957     -2806547.3      1473.2542      1473.2542      1473.2542      763.37291      2236.6271      763.37291      2236.6271      763.37291      2236.6271      3.1976656e+09  0.16718856     0.5            2907475        2.546401       2249.0104      4497.6163      48.637577    
   5815000   321.90771      1.1211143     -2816824        958.58619     -2815865.4      1472.9921      1472.9921      1472.9921      763.50393      2236.4961      763.50393      2236.4961      763.50393      2236.4961      3.1959596e+09  0.1672778      0.5            2907500        2.559663       1884.9431      3769.8861      48.633635    
   5815050   321.86445      0.88843345    -2816914        958.45737     -2815955.6      1473.1981      1473.1981      1473.1981      763.40095      2236.599       763.40095      2236.599       763.40095      2236.599       3.1973004e+09  0.16720766     0.5            2907525        2.574239       1715.1482      3430.5317      48.654436    
   5815100   322.04057      1.1367952     -2816955.1      958.98182     -2815996.1      1472.8872      1472.8872      1472.8872      763.5564       2236.4436      763.5564       2236.4436      763.5564       2236.4436      3.1952766e+09  0.16731356     0.5            2907550        2.585607       2199.1555      4397.9242      48.614588    
   5815150   321.96981      0.89786188    -2817046        958.77113     -2816087.2      1473.0994      1473.0994      1473.0994      763.45029      2236.5497      763.45029      2236.5497      763.45029      2236.5497      3.196658e+09   0.16724126     0.5            2907575        2.596389       2318.6793      4637.7887      48.564023    
   5815200   322.079        1.0118303     -2817101.5      959.09627     -2816142.4      1472.9327      1472.9327      1472.9327      763.53364      2236.4664      763.53364      2236.4664      763.53364      2236.4664      3.1955729e+09  0.16729805     0.5            2907600        2.608986       1984.7571      3969.199       48.547639    
   5815250   322.11905      1.0890212     -2817159.8      959.21552     -2816200.6      1472.806       1472.806       1472.806       763.597        2236.403       763.597        2236.403       763.597        2236.403       3.1947482e+09  0.16734123     0.5            2907625        2.62247        1853.9118      3707.8235      48.547732    
   5815300   322.03928      0.85642263    -2817248.9      958.97799     -2816290        1473.0103      1473.0103      1473.0103      763.49486      2236.5051      763.49486      2236.5051      763.49486      2236.5051      3.1960777e+09  0.16727163     0.5            2907650        2.633311       2306.2731      4612.5461      48.498978    
   5815350   322.17995      1.1151141     -2817289.9      959.39687     -2816330.5      1472.6904      1472.6904      1472.6904      763.6548       2236.3452      763.6548       2236.3452      763.6548       2236.3452      3.193996e+09   0.16738064     0.5            2907675        2.644109       2315.0292      4630.4871      48.449821    
   5815400   322.10972      0.98575871    -2817370        959.18775     -2816410.8      1472.7841      1472.7841      1472.7841      763.60795      2236.392       763.60795      2236.392       763.60795      2236.392       3.1946057e+09  0.1673487      0.5            2907700        2.656448       2026.0961      4051.8639      48.429145    
   5815450   322.09984      0.90084228    -2817444.5      959.15833     -2816485.3      1472.8303      1472.8303      1472.8303      763.58486      2236.4151      763.58486      2236.4151      763.58486      2236.4151      3.1949062e+09  0.16733296     0.5            2907725        2.667305       2302.6619      4605.3238      48.381649    
   5815500   322.21246      1.1507351     -2817485.5      959.49369     -2816526        1472.5218      1472.5218      1472.5218      763.73911      2236.2609      763.73911      2236.2609      763.73911      2236.2609      3.192899e+09   0.16743815     0.5            2907750        2.679209       2100.1344      4200.6217      48.353379    
   5815550   322.0899       0.89880502    -2817577.8      959.12873     -2816618.6      1472.7449      1472.7449      1472.7449      763.62756      2236.3724      763.62756      2236.3724      763.62756      2236.3724      3.1943505e+09  0.16736207     0.5            2907775        2.691216       2082.2922      4164.2375      48.327133    
   5815600   322.14924      0.97799184    -2817637        959.30542     -2816677.7      1472.6182      1472.6182      1472.6182      763.69089      2236.3091      763.69089      2236.3091      763.69089      2236.3091      3.1935264e+09  0.16740526     0.5            2907800        2.70288        2143.1633      4286.6941      48.294892    
   5815650   322.19931      1.1326056     -2817687.5      959.45454     -2816728        1472.4129      1472.4129      1472.4129      763.79357      2236.2064      763.79357      2236.2064      763.79357      2236.2064      3.1921906e+09  0.16747531     0.5            2907825        2.713644       2322.5567      4645.1133      48.246842    
   5815700   322.06668      0.85608798    -2817781.2      959.05957     -2816822.2      1472.6609      1472.6609      1472.6609      763.66956      2236.3304      763.66956      2236.3304      763.66956      2236.3304      3.193804e+09   0.16739071     0.5            2907850        2.726724       1911.315       3822.3377      48.240133    
   5815750   322.15808      1.0440637     -2817830.4      959.33175     -2816871        1472.422       1472.422       1472.422       763.78899      2236.211       763.78899      2236.211       763.78899      2236.211       3.1922501e+09  0.16747219     0.5            2907875        2.738148       2188.5669      4377.1339      48.204176    
   5815800   322.1416       1.0895906     -2817892.2      959.28268     -2816932.9      1472.3321      1472.3321      1472.3321      763.83395      2236.166       763.83395      2236.166       763.83395      2236.166       3.1916653e+09  0.16750288     0.5            2907900        2.749265       2248.6059      4497.2117      48.163102    
   5815850   322.02003      0.84555176    -2817982.1      958.92066     -2817023.2      1472.5466      1472.5466      1472.5466      763.72671      2236.2733      763.72671      2236.2733      763.72671      2236.2733      3.1930604e+09  0.16742969     0.5            2907925        2.763156       1799.7264      3599.4529      48.17063     
   5815900   322.12496      1.1064857     -2818023.6      959.23312     -2817064.3      1472.2303      1472.2303      1472.2303      763.88485      2236.1151      763.88485      2236.1151      763.88485      2236.1151      3.1910033e+09  0.16753763     0.5            2907950        2.775982       1949.1658      3898.3315      48.15952     
   5815950   322.03403      1.0134549     -2818099.9      958.96234     -2817141        1472.2872      1472.2872      1472.2872      763.85642      2236.1436      763.85642      2236.1436      763.85642      2236.1436      3.1913731e+09  0.16751821     0.5            2907975        2.789233       1886.6501      3773.5849      48.155697    
   5816000   321.83389      0.87905494    -2818179        958.36637     -2817220.7      1472.3874      1472.3874      1472.3874      763.80628      2236.1937      763.80628      2236.1937      763.80628      2236.1937      3.1920252e+09  0.16748399     0.5            2908000        2.800575       2204.1968      4408.0049      48.119108    
   5816050   321.93755      1.1484903     -2818218.3      958.67506     -2817259.6      1472.0598      1472.0598      1472.0598      763.97008      2236.0299      763.97008      2236.0299      763.97008      2236.0299      3.189895e+09   0.16759583     0.5            2908025        2.811192       2354.7141      4709.8719      48.070145    
[...]
   6002350   322.32638      1.0240786     -3861685.8      959.83292     -3860725.9      1331.694       1331.694       1331.694       834.15302      2165.847       834.15302      2165.847       834.15302      2165.847       2.3616378e+09  0.22637388     0.5            3001175        52.142999      1693.8817      3387.7634      0.70017204   
   6002400   322.32037      0.93435338    -3861757.5      959.81503     -3860797.7      1331.705       1331.705       1331.705       834.14752      2165.8525      834.14752      2165.8525      834.14752      2165.8525      2.3616963e+09  0.22636827     0.5            3001200        52.158493      1613.5278      3227.0556      0.68699132   
   6002450   322.32623      0.91760594    -3861826.6      959.83248     -3860866.7      1331.68        1331.68        1331.68        834.15999      2165.84        834.15999      2165.84        834.15999      2165.84        2.3615636e+09  0.22638099     0.5            3001225        52.174785      1534.4013      3068.8026      0.67381975   
   6002500   322.3533       0.98394168    -3861892.7      959.91307     -3860932.8      1331.614       1331.614       1331.614       834.19302      2165.807       834.19302      2165.807       834.19302      2165.807       2.3612122e+09  0.22641468     0.5            3001250        52.187475      1970.2104      3940.4208      0.66060099   
   6002550   322.38861      1.0625793     -3861958.2      960.01824     -3860998.2      1331.5413      1331.5413      1331.5413      834.22935      2165.7706      834.22935      2165.7706      834.22935      2165.7706      2.3608257e+09  0.22645175     0.5            3001275        52.202839      1627.1804      3254.3608      0.64741564   
   6002600   322.41386      1.0808992     -3862026        960.09343     -3861065.9      1331.4981      1331.4981      1331.4981      834.25093      2165.7491      834.25093      2165.7491      834.25093      2165.7491      2.3605961e+09  0.22647377     0.5            3001300        52.215036      2049.6843      4099.7048      0.63419074   
   6002650   322.42243      1.026369      -3862096.7      960.11894     -3861136.6      1331.491       1331.491       1331.491       834.25451      2165.7455      834.25451      2165.7455      834.25451      2165.7455      2.3605581e+09  0.22647742     0.5            3001325        52.229068      1781.642       3563.03        0.6209882    
   6002700   322.42364      0.94962544    -3862168.1      960.12254     -3861208        1331.4947      1331.4947      1331.4947      834.25263      2165.7474      834.25263      2165.7474      834.25263      2165.7474      2.3605781e+09  0.22647551     0.5            3001350        52.243132      1777.5882      3555.1763      0.60778558   
   6002750   322.43345      0.91819045    -3862237.8      960.15174     -3861277.7      1331.4761      1331.4761      1331.4761      834.26196      2165.738       834.26196      2165.738       834.26196      2165.738       2.3604788e+09  0.22648503     0.5            3001375        52.256162      1918.6493      3837.5931      0.59457077   
   6002800   322.46011      0.95895713    -3862305        960.23114     -3861344.8      1331.4218      1331.4218      1331.4218      834.28911      2165.7109      834.28911      2165.7109      834.28911      2165.7109      2.3601901e+09  0.22651274     0.5            3001400        52.268932      1957.7134      3915.4268      0.58135316   
   6002850   322.51757      0.99879367    -3862372.3      960.40224     -3861411.9      1331.3681      1331.3681      1331.3681      834.31596      2165.684       834.31596      2165.684       834.31596      2165.684       2.3599045e+09  0.22654015     0.5            3001425        52.283804      1681.0113      3361.7965      0.56815863   
   6002900   322.58982      0.98189029    -3869817.6      960.61741     -3868857        1331.3144      1331.3144      1331.3144      834.34279      2165.6572      834.34279      2165.6572      834.34279      2165.6572      2.3596191e+09  0.22656755     0.5            3001450        52.297469      1829.4914      3658.9828      0.55495044   
   6002950   322.62403      0.92311872    -3869888.7      960.71928     -3868928        1331.3098      1331.3098      1331.3098      834.34511      2165.6549      834.34511      2165.6549      834.34511      2165.6549      2.3595945e+09  0.22656991     0.5            3001475        52.309295      2113.9861      4227.9723      0.54172296   
   6003000   322.58597      0.93250588    -3869957.4      960.60594     -3868996.8      1331.2718      1331.2718      1331.2718      834.3641       2165.6359      834.3641       2165.6359      834.3641       2165.6359      2.3593925e+09  0.22658931     0.5            3001500        52.326154      1482.8875      2965.9509      0.52854703   
   6003050   322.63454      0.93352195    -3871920.4      960.75057     -3870959.7      1331.2265      1331.2265      1331.2265      834.38675      2165.6133      834.38675      2165.6133      834.38675      2165.6133      2.3591517e+09  0.22661244     0.5            3001525        52.342965      1487.1215      2974.2431      0.51536877   
   6003100   322.67139      0.9384718     -3871989.4      960.86031     -3871028.5      1331.1913      1331.1913      1331.1913      834.40433      2165.5957      834.40433      2165.5957      834.40433      2165.5957      2.3589647e+09  0.2266304      0.5            3001550        52.356501      1846.9267      3693.8534      0.50215727   
   6003150   322.70711      1.0085904     -3872056        960.96666     -3871095.1      1331.1245      1331.1245      1331.1245      834.43776      2165.5622      834.43776      2165.5622      834.43776      2165.5622      2.3586093e+09  0.22666454     0.5            3001575        52.373153      1501.3212      3002.462       0.48897471   
   6003200   322.72886      1.0705709     -3872122.8      961.03144     -3871161.8      1331.0619      1331.0619      1331.0619      834.46906      2165.5309      834.46906      2165.5309      834.46906      2165.5309      2.3582766e+09  0.22669653     0.5            3001600        52.386219      1913.2165      3826.433       0.47575783   
   6003250   322.72177      1.0541991     -3872192.7      961.01032     -3871231.7      1331.0378      1331.0378      1331.0378      834.48112      2165.5189      834.48112      2165.5189      834.48112      2165.5189      2.3581484e+09  0.22670885     0.5            3001625        52.399766      1845.5633      3691.1265      0.46254524   
   6003300   322.70311      1.0247808     -3872263        960.95475     -3871302        1331.0201      1331.0201      1331.0201      834.48994      2165.5101      834.48994      2165.5101      834.48994      2165.5101      2.3580546e+09  0.22671786     0.5            3001650        52.411572      2117.5673      4235.4934      0.44931758   
   6003350   322.69247      1.0245377     -3872700        960.92307     -3871739.1      1330.9802      1330.9802      1330.9802      834.50991      2165.4901      834.50991      2165.4901      834.50991      2165.4901      2.3578423e+09  0.22673828     0.5            3001675        52.424969      1866.0894      3731.9003      0.43610388   
   6003400   322.66224      0.9636683     -3872771.5      960.83306     -3871810.7      1330.9779      1330.9779      1330.9779      834.51104      2165.489       834.51104      2165.489       834.51104      2165.489       2.3578303e+09  0.22673944     0.5            3001700        52.439263      1748.9856      3498.2159      0.4228973    
   6003450   322.62943      0.92302645    -3872842.1      960.73535     -3871881.4      1330.9659      1330.9659      1330.9659      834.51706      2165.4829      834.51706      2165.4829      834.51706      2165.4829      2.3577663e+09  0.22674559     0.5            3001725        52.451339      2070.3934      4140.4439      0.40967286   
   6003500   322.62004      0.99460904    -3872908.8      960.70739     -3871948.1      1330.9003      1330.9003      1330.9003      834.54987      2165.4501      834.54987      2165.4501      834.54987      2165.4501      2.3574176e+09  0.22677913     0.5            3001750        52.463065      2131.8325      4263.665       0.39644635   
   6003550   322.61652      1.0774885     -3872974.9      960.69689     -3872014.2      1330.8298      1330.8298      1330.8298      834.58512      2165.4149      834.58512      2165.4149      834.58512      2165.4149      2.3570431e+09  0.22681516     0.5            3001775        52.478066      1666.5556      3333.1111      0.38324452   
   6003600   322.58552      1.0341783     -3873045.8      960.6046      -3872085.2      1330.8193      1330.8193      1330.8193      834.59036      2165.4096      834.59036      2165.4096      834.59036      2165.4096      2.3569874e+09  0.22682053     0.5            3001800        52.491488      1862.6136      3725.2272      0.37003064   
   6003650   322.53669      0.92903179    -3873118.7      960.45918     -3872158.2      1330.8378      1330.8378      1330.8378      834.5811       2165.4189      834.5811       2165.4189      834.5811       2165.4189      2.3570858e+09  0.22681106     0.5            3001825        52.50415       1974.2557      3948.8233      0.35681151   
   6003700   322.51592      0.95189143    -3873187.2      960.39733     -3872226.8      1330.7961      1330.7961      1330.7961      834.60197      2165.398       834.60197      2165.398       834.60197      2165.398       2.3568639e+09  0.2268324      0.5            3001850        52.520888      1493.6966      2987.2147      0.34361931   
   6003750   322.5239       1.0698013     -3873252.2      960.4211      -3872291.7      1330.7103      1330.7103      1330.7103      834.64485      2165.3551      834.64485      2165.3551      834.64485      2165.3551      2.3564083e+09  0.22687626     0.5            3001875        52.536281      1624.1149      3248.2297      0.33041688   
   6003800   322.50638      1.0484145     -3873322.2      960.36893     -3872361.8      1330.6897      1330.6897      1330.6897      834.65514      2165.3449      834.65514      2165.3449      834.65514      2165.3449      2.356299e+09   0.22688679     0.5            3001900        52.548458      2053.0508      4106.1017      0.31719393   
   6003850   322.46123      0.92183532    -3873395.8      960.23449     -3872435.6      1330.7177      1330.7177      1330.7177      834.64113      2165.3589      834.64113      2165.3589      834.64113      2165.3589      2.3564478e+09  0.22687246     0.5            3001925        52.561146      1970.3657      3940.7314      0.30397446   
   6003900   322.45213      0.96678906    -3873463.5      960.20739     -3872503.3      1330.6666      1330.6666      1330.6666      834.66668      2165.3333      834.66668      2165.3333      834.66668      2165.3333      2.3561765e+09  0.22689859     0.5            3001950        52.575388      1755.3714      3510.0035      0.29076387   
   6003950   322.46853      1.0911697     -3873528.3      960.25622     -3872568.1      1330.5796      1330.5796      1330.5796      834.7102       2165.2898      834.7102       2165.2898      834.7102       2165.2898      2.3557141e+09  0.22694312     0.5            3001975        52.588606      1891.3603      3783.5793      0.27754732   
   6004000   322.36708      0.99991963    -3873600.9      959.95413     -3872640.9      1330.5913      1330.5913      1330.5913      834.70433      2165.2957      834.70433      2165.2957      834.70433      2165.2957      2.3557765e+09  0.22693711     0.5            3002000        52.604251      1597.9546      3195.9092      0.26434298   
   6004050   322.33637      0.90520019    -3873673.2      959.86267     -3872713.3      1330.6046      1330.6046      1330.6046      834.69772      2165.3023      834.69772      2165.3023      834.69772      2165.3023      2.3558467e+09  0.22693035     0.5            3002025        52.623279      1313.7842      2627.5684      0.25115357   
   6004100   322.36688      1.0437514     -3873737.8      959.95351     -3872777.8      1330.5116      1330.5116      1330.5116      834.74422      2165.2558      834.74422      2165.2558      834.74422      2165.2558      2.3553527e+09  0.22697794     0.5            3002050        52.635558      2036.1622      4072.3245      0.23793071   
   6004150   322.38053      1.0785609     -3873805.7      959.99417     -3872845.7      1330.4657      1330.4657      1330.4657      834.76715      2165.2329      834.76715      2165.2329      834.76715      2165.2329      2.3551092e+09  0.22700141     0.5            3002075        52.649488      1794.6877      3589.3754      0.22471538   
   6004200   322.34221      0.91747542    -3873880.4      959.88006     -3872920.5      1330.509       1330.509       1330.509       834.74548      2165.2545      834.74548      2165.2545      834.74548      2165.2545      2.3553394e+09  0.22697923     0.5            3002100        52.661829      2025.7678      4051.5355      0.2114933    
   6004250   322.39762      1.0088738     -3881322.4      960.04506     -3880362.4      1330.4111      1330.4111      1330.4111      834.79445      2165.2055      834.79445      2165.2055      834.79445      2165.2055      2.3548193e+09  0.22702936     0.5            3002125        52.676018      1761.9283      3524.1049      0.19827862   
   6004300   322.44134      1.1014895     -3881388.3      960.17524     -3880428.1      1330.3381      1330.3381      1330.3381      834.83095      2165.169       834.83095      2165.169       834.83095      2165.169       2.3544316e+09  0.22706674     0.5            3002150        52.690389      1739.4935      3478.7449      0.1850641    
   6004350   322.42314      0.88017143    -3881465.2      960.12106     -3880505.1      1330.4091      1330.4091      1330.4091      834.79543      2165.2046      834.79543      2165.2046      834.79543      2165.2046      2.3548089e+09  0.22703036     0.5            3002175        52.719526      858.04503      1716.0312      0.17189714   
   6004400   322.44327      0.92434288    -3881533.1      960.181       -3880572.9      1330.3583      1330.3583      1330.3583      834.82086      2165.1791      834.82086      2165.1791      834.82086      2165.1791      2.3545388e+09  0.2270564      0.5            3002200        52.743821      1025.5989      2051.1138      0.15870785   
   6004450   322.50438      1.1452433     -3881594.3      960.36298     -3880634        1330.2258      1330.2258      1330.2258      834.88708      2165.1129      834.88708      2165.1129      834.88708      2165.1129      2.3538357e+09  0.22712422     0.5            3002225        52.760467      1509.2062      3018.7768      0.14549139   
   6004500   322.49233      1.0479653     -3881667.3      960.32709     -3880707        1330.2401      1330.2401      1330.2401      834.87993      2165.1201      834.87993      2165.1201      834.87993      2165.1201      2.3539116e+09  0.2271169      0.5            3002250        52.773613      1901.7192      3803.4383      0.1322647    
   6004550   322.43508      0.83367151    -3881743.7      960.15661     -3880783.5      1330.3082      1330.3082      1330.3082      834.84592      2165.1541      834.84592      2165.1541      834.84592      2165.1541      2.3542727e+09  0.22708206     0.5            3002275        52.787869      1753.6476      3507.2952      0.11904055   
   6004600   322.45213      0.98881592    -3881808        960.2074      -3880847.8      1330.2066      1330.2066      1330.2066      834.8967       2165.1033      834.8967       2165.1033      834.8967       2165.1033      2.3537336e+09  0.22713408     0.5            3002300        52.800523      1975.5038      3951.3197      0.10581268   
   6004650   322.48762      1.1809447     -3881869.9      960.31308     -3880909.6      1330.088       1330.088       1330.088       834.956        2165.044       834.956        2165.044       834.956        2165.044       2.3531041e+09  0.22719484     0.5            3002325        52.817711      1454.5878      2909.0063      0.092593036  
   6004700   322.42733      0.96546318    -3881947.2      960.13353     -3880987.1      1330.1572      1330.1572      1330.1572      834.92142      2165.0786      834.92142      2165.0786      834.92142      2165.0786      2.3534711e+09  0.22715941     0.5            3002350        52.830338      1979.8844      3959.7687      0.079364557  
   6004750   322.36247      0.81331288    -3882021.2      959.9404      -3881061.2      1330.1969      1330.1969      1330.1969      834.90153      2165.0985      834.90153      2165.0985      834.90153      2165.0985      2.3536822e+09  0.22713904     0.5            3002375        52.84441       1776.5776      3553.1552      0.066138188  
   6004800   322.39387      1.0829172     -3882081.4      960.0339      -3881121.4      1330.0431      1330.0431      1330.0431      834.97844      2165.0216      834.97844      2165.0216      834.97844      2165.0216      2.3528658e+09  0.22721785     0.5            3002400        52.858595      1762.4251      3525.0987      0.052911509  
   6004850   322.40187      1.1831262     -3882146.6      960.05771     -3881186.5      1329.9667      1329.9667      1329.9667      835.01665      2164.9833      835.01665      2164.9833      835.01665      2164.9833      2.3524602e+09  0.22725702     0.5            3002425        52.871296      1968.194       3936.0781      0.039683237  
   6004900   322.30991      0.87586136    -3882226.8      959.78388     -3881267        1330.0784      1330.0784      1330.0784      834.96079      2165.0392      834.96079      2165.0392      834.96079      2165.0392      2.3530532e+09  0.22719976     0.5            3002450        52.887583      1535.0608      3070.1216      0.026457022  
   6004950   322.25981      0.8195639     -3882297.5      959.63468     -3881337.9      1330.0742      1330.0742      1330.0742      834.96289      2165.0371      834.96289      2165.0371      834.96289      2165.0371      2.3530309e+09  0.22720191     0.5            3002475        52.902333      1694.9153      3389.8305      0.013228891  
   6005000   322.23337      1.1509096     -3882355        959.55594     -3881395.5      1329.8902      1329.8902      1329.8902      835.0549       2164.9451      835.0549       2164.9451      835.0549       2164.9451      2.3520543e+09  0.22729624     0.5            3002500        52.914264      2095.3818      4190.7636      0            
Loop time of 52.9148 on 1 procs for 200000 steps with 1000 atoms

Performance: 163.281 ns/day, 0.147 hours/ns, 3779.663 timesteps/s
77.4% CPU use with 1 MPI tasks x 1 OpenMP threads

MPI task timing breakdown:
Section |  min time  |  avg time  |  max time  |%varavg| %total
---------------------------------------------------------------
Pair    | 6.0252     | 6.0252     | 6.0252     |   0.0 | 11.39
Neigh   | 0.088177   | 0.088177   | 0.088177   |   0.0 |  0.17
Comm    | 0.62579    | 0.62579    | 0.62579    |   0.0 |  1.18
Output  | 30.927     | 30.927     | 30.927     |   0.0 | 58.45
Modify  | 14.421     | 14.421     | 14.421     |   0.0 | 27.25
Other   |            | 0.8282     |            |       |  1.57

Nlocal:           1000 ave        1000 max        1000 min
Histogram: 1 0 0 0 0 0 0 0 0 0
Nghost:            599 ave         599 max         599 min
Histogram: 1 0 0 0 0 0 0 0 0 0
Neighs:            836 ave         836 max         836 min
Histogram: 1 0 0 0 0 0 0 0 0 0

Total # of neighbors = 836
Ave neighs/atom = 0.836
Neighbor list builds = 254
Dangerous builds = 0

# run_style
run_style verlet

# write restart
write_restart ${write_res}
write_restart equpmf1.14.res
System init for write_restart ...
  generated 0 of 1 mixed pair_coeff terms from geometric mixing rule

Total wall time: 0:00:53
