LAMMPS (24 Mar 2022)
OMP_NUM_THREADS environment is not set. Defaulting to 1 thread. (src/comm.cpp:98)
  using 1 OpenMP thread(s) per MPI task
# Read restart
read_restart ${read_res}
read_restart equpmf1.14.res
Reading restart file ...
  restart file = 24 Mar 2022, LAMMPS = 24 Mar 2022
  restoring atom style atomic from restart
  orthogonal box = (835.0549 835.0549 835.0549) to (2164.9451 2164.9451 2164.9451)
  1 by 1 by 1 MPI processor grid
  restoring pair style table from restart
  1000 atoms
  read_restart CPU = 0.003 seconds

# Settings

pair_style table spline 9941

pair_coeff 1 1 N20.txt DE_GNP 75.6
pair_coeff 2 2 N100.txt DE_GNP 115.92
WARNING: 3 of 9941 force values in table DE_GNP are inconsistent with -dE/dr.
WARNING:  Should only be flagged at inflection points (src/pair_table.cpp:465)
pair_coeff 1 2 mixed_potential.txt DE_GNP 95.66
WARNING: 1562 of 9941 force values in table DE_GNP are inconsistent with -dE/dr.
WARNING:  Should only be flagged at inflection points (src/pair_table.cpp:465)

#Neigh_list Calc Frequency

neigh_modify delay 0 every 1 check yes

# Saving Frequency (50 frames)

variable ts_save equal floor(${steps_equ}*0.01)
variable ts_save equal floor(5000*0.01)

# Dump
dump 1 all custom ${ts_save} ./equilibration/trajectory/trajectory_${usic}_${trial}.equ.custom type x y z ix iy iz
dump 1 all custom 50 ./equilibration/trajectory/trajectory_${usic}_${trial}.equ.custom type x y z ix iy iz
dump 1 all custom 50 ./equilibration/trajectory/trajectory_15_${trial}.equ.custom type x y z ix iy iz
dump 1 all custom 50 ./equilibration/trajectory/trajectory_15_1.equ.custom type x y z ix iy iz
dump_modify 1 first no sort id
dump 2 all cfg ${ts_save} ./equilibration/trajectory/ovito/dumpgen.tens_*.cfg mass type xs ys zs fx fy fz
dump 2 all cfg 50 ./equilibration/trajectory/ovito/dumpgen.tens_*.cfg mass type xs ys zs fx fy fz

# thermo_style
thermo_style custom step temp press pe ke etotal lx ly lz xlo xhi ylo yhi zlo zhi vol density dt time cpu tpcpu spcpu cpuremain

# run info
timestep ${ts}
timestep 0.5
thermo ${ts_save}
thermo 50

# fix

fix 1 all momentum 1000 linear 1 1 1 angular
variable T equal ${temp}
variable T equal 300
#fix 2 all nvt temp ${T} 370000 100.0

#run 100000

#unfix 2

#fix 3 all npt temp 370000 370000 $(100.0*dt) iso 1.0 1.0 $(1000.0*dt)

#run 200000

#unfix 3

#fix 4 all nvt temp 370000 ${T} 100.0

#run 200000

#unfix 4

fix 5 all npt temp ${T} ${T} $(100.0*dt) iso 1.0 1.0 $(1000.0*dt)
fix 5 all npt temp 300 ${T} $(100.0*dt) iso 1.0 1.0 $(1000.0*dt)
fix 5 all npt temp 300 300 $(100.0*dt) iso 1.0 1.0 $(1000.0*dt)
fix 5 all npt temp 300 300 50 iso 1.0 1.0 $(1000.0*dt)
fix 5 all npt temp 300 300 50 iso 1.0 1.0 500
Resetting global fix info from restart file:
  fix style: npt, fix ID: 5

run 500000
  generated 0 of 1 mixed pair_coeff terms from geometric mixing rule
All restart file global fix info was re-assigned
Neighbor list info ...
  update every 1 steps, delay 0 steps, check yes
  max neighbors/atom: 2000, page size: 100000
  master list distance cutoff = 117.92
  ghost atom cutoff = 117.92
  binsize = 58.96, bins = 23 23 23
  1 neighbor lists, perpetual/occasional/extra = 1 0 0
  (1) pair table, perpetual
      attributes: half, newton on
      pair build: half/bin/atomonly/newton
      stencil: half/bin/3d
      bin: standard
Per MPI rank memory allocation (min/avg/max) = 5.831 | 5.831 | 5.831 Mbytes
   Step          Temp          Press          PotEng         KinEng         TotEng           Lx             Ly             Lz            Xlo            Xhi            Ylo            Yhi            Zlo            Zhi           Volume        Density           Dt            Time           CPU           T/CPU          S/CPU         CPULeft    
   6005000   322.23337      1.1509096     -3882355        959.55594     -3881395.5      1329.8902      1329.8902      1329.8902      835.0549       2164.9451      835.0549       2164.9451      835.0549       2164.9451      2.3520543e+09  0.22729624     0.5            3002500        0              0              0              0            
   6005050   322.24449      1.1919749     -3882422.3      959.58906     -3881462.7      1329.8398      1329.8398      1329.8398      835.08009      2164.9199      835.08009      2164.9199      835.08009      2164.9199      2.351787e+09   0.22732207     0.5            3002525        0.013922       1795.4611      3590.6643      139.24607    
   6005100   322.16978      0.85102786    -3882503.5      959.36659     -3881544.1      1329.968       1329.968       1329.968       835.016        2164.984       835.016        2164.984       835.016        2164.984       2.3524672e+09  0.22725635     0.5            3002550        0.029584       1596.3221      3192.848       147.90041    
   6005150   322.1403       0.76863636    -3882574.7      959.27879     -3881615.5      1329.9752      1329.9752      1329.9752      835.01242      2164.9876      835.01242      2164.9876      835.01242      2164.9876      2.3525052e+09  0.22725268     0.5            3002575        0.041842       2039.4844      4078.9688      139.43816    
   6005200   322.21551      1.1002164     -3882632.6      959.50278     -3881673.1      1329.7874      1329.7874      1329.7874      835.1063       2164.8937      835.1063       2164.8937      835.1063       2164.8937      2.351509e+09   0.22734896     0.5            3002600        0.053737       2101.7234      4203.4468      134.29376    
   6005250   322.27701      1.2804306     -3882693.7      959.68591     -3881734        1329.6688      1329.6688      1329.6688      835.16558      2164.8344      835.16558      2164.8344      835.16558      2164.8344      2.3508801e+09  0.22740977     0.5            3002625        0.068011       1751.4362      3502.8724      135.95799    
   6005300   322.23517      1.0152972     -3882773.5      959.5613      -3881814        1329.7627      1329.7627      1329.7627      835.11866      2164.8813      835.11866      2164.8813      835.11866      2164.8813      2.3513779e+09  0.22736163     0.5            3002650        0.081632       1831.5018      3662.7353      136.02334    
   6005350   322.16709      0.7069309     -3882851.8      959.35858     -3881892.4      1329.8763      1329.8763      1329.8763      835.06186      2164.9381      835.06186      2164.9381      835.06186      2164.9381      2.3519806e+09  0.22730337     0.5            3002675        0.09513        1856.114       3712.2281      135.80915    
   6005400   322.19237      0.82544638    -3882917.5      959.43386     -3881958        1329.7875      1329.7875      1329.7875      835.10625      2164.8938      835.10625      2164.8938      835.10625      2164.8938      2.3515095e+09  0.2273489      0.5            3002700        0.108114       1925.4467      3850.8934      135.03688    
   6005450   322.29505      1.2057345     -3882972.4      959.73961     -3882012.7      1329.5726      1329.5726      1329.5726      835.21371      2164.7863      835.21371      2164.7863      835.21371      2164.7863      2.3503696e+09  0.22745917     0.5            3002725        0.120451       2026.4246      4053.1777      133.71621    
   6005500   322.34968      1.3125681     -3883036.4      959.9023      -3882076.5      1329.4878      1329.4878      1329.4878      835.2561       2164.7439      835.2561       2164.7439      835.2561       2164.7439      2.3499199e+09  0.22750269     0.5            3002750        0.158409       658.62269      1317.2454      158.25259    
   6005550   322.30695      1.0270702     -3883117.4      959.77506     -3882157.7      1329.5924      1329.5924      1329.5924      835.20381      2164.7962      835.20381      2164.7962      835.20381      2164.7962      2.3504745e+09  0.22744902     0.5            3002775        0.172502       1773.8045      3547.1056      156.65204    
   6005600   322.24297      0.71225391    -3883196.2      959.58455     -3882236.6      1329.7101      1329.7101      1329.7101      835.14494      2164.8551      835.14494      2164.8551      835.14494      2164.8551      2.3510991e+09  0.22738859     0.5            3002800        0.185878       1869.1589      3738.5973      154.71412    
   6005650   322.23191      0.65825248    -3883266.4      959.55161     -3882306.8      1329.7031      1329.7031      1329.7031      835.14846      2164.8515      835.14846      2164.8515      835.14846      2164.8515      2.3510617e+09  0.22739221     0.5            3002825        0.198811       1933.0395      3866.079       152.73426    
   6005700   322.2815       0.85388078    -3883330        959.69926     -3882370.3      1329.5763      1329.5763      1329.5763      835.21186      2164.7881      835.21186      2164.7881      835.21186      2164.7881      2.3503891e+09  0.22745728     0.5            3002850        0.212323       1850.2072      3700.6883      151.44839    
   6005750   322.36138      1.1162184     -3883757.3      959.93715     -3882797.3      1329.4068      1329.4068      1329.4068      835.29658      2164.7034      835.29658      2164.7034      835.29658      2164.7034      2.3494907e+09  0.22754426     0.5            3002875        0.227528       1644.196       3288.1757      151.45914    
   6005800   322.43469      1.3182382     -3883816.9      960.15546     -3882856.7      1329.2723      1329.2723      1329.2723      835.36386      2164.6361      835.36386      2164.6361      835.36386      2164.6361      2.3487774e+09  0.22761336     0.5            3002900        0.238521       2274.1745      4548.3489      148.83835    
   6005850   322.47356      1.3482005     -3883884.1      960.27119     -3882923.9      1329.2217      1329.2217      1329.2217      835.38913      2164.6109      835.38913      2164.6109      835.38913      2164.6109      2.3485094e+09  0.22763933     0.5            3002925        0.249865       2203.8082      4407.6164      146.73131    
   6005900   322.47521      1.2198288     -3883959.2      960.27611     -3882998.9      1329.2501      1329.2501      1329.2501      835.37496      2164.625       835.37496      2164.625       835.37496      2164.625       2.3486597e+09  0.22762477     0.5            3002950        0.265074       1643.7636      3287.5271      146.99937    
   6005950   322.46082      1.0197822     -3884036.6      960.23327     -3883076.3      1329.314       1329.314       1329.314       835.34299      2164.657       835.34299      2164.657       835.34299      2164.657       2.3489986e+09  0.22759193     0.5            3002975        0.279216       1767.7839      3535.5678      146.67762    
   6006000   322.41035      0.9567556     -3884107.8      960.08296     -3883147.7      1329.3093      1329.3093      1329.3093      835.34535      2164.6547      835.34535      2164.6547      835.34535      2164.6547      2.3489736e+09  0.22759435     0.5            3003000        0.290591       2197.8022      4395.6044      145.00641    
   6006050   322.46154      0.93731474    -3884177.4      960.2354      -3883217.2      1329.2826      1329.2826      1329.2826      835.35872      2164.6413      835.35872      2164.6413      835.35872      2164.6413      2.3488318e+09  0.22760808     0.5            3003025        0.304074       1854.1868      3708.3735      144.49402    
   6006100   322.54522      0.99621548    -3884244.2      960.48459     -3883283.7      1329.2161      1329.2161      1329.2161      835.39194      2164.6081      835.39194      2164.6081      835.39194      2164.6081      2.3484796e+09  0.22764222     0.5            3003050        0.316681       1983.1826      3966.3652      143.63014    
   6006150   322.64949      1.0780475     -3891685.4      960.7951      -3890724.6      1329.1089      1329.1089      1329.1089      835.44554      2164.5545      835.44554      2164.5545      835.44554      2164.5545      2.3479114e+09  0.22769731     0.5            3003075        0.330938       1753.4016      3506.8032      143.55645    
   6006200   322.75996      1.2409174     -3893641.2      961.12405     -3892680.1      1328.9776      1328.9776      1328.9776      835.51118      2164.4888      835.51118      2164.4888      835.51118      2164.4888      2.3472159e+09  0.22776478     0.5            3003100        0.344279       1873.9225      3747.845       143.10614    
   6006250   322.84274      1.3568602     -3893704.9      961.37055     -3892743.5      1328.8833      1328.8833      1328.8833      835.55833      2164.4417      835.55833      2164.4417      835.55833      2164.4417      2.3467162e+09  0.22781328     0.5            3003125        0.357937       1830.4291      3660.8581      142.81766    
   6006300   322.88821      1.3310305     -3894143.4      961.50596     -3893181.9      1328.8523      1328.8523      1328.8523      835.57383      2164.4262      835.57383      2164.4262      835.57383      2164.4262      2.346552e+09   0.22782922     0.5            3003150        0.379735       1146.8416      2293.6832      145.67909    
   6006350   322.90147      1.2144585     -3893851.1      961.54545     -3892889.5      1328.8839      1328.8839      1328.8839      835.55807      2164.4419      835.55807      2164.4419      835.55807      2164.4419      2.346719e+09   0.22781301     0.5            3003175        0.399504       1264.6062      2529.0845      147.56642    
   6006400   322.90342      1.0227223     -3893928.8      961.55125     -3892967.3      1328.9439      1328.9439      1328.9439      835.52807      2164.4719      835.52807      2164.4719      835.52807      2164.4719      2.3470369e+09  0.22778215     0.5            3003200        0.419468       1252.3168      2504.8845      149.39124    
   6006450   322.93342      0.94907927    -3894001.3      961.64059     -3893039.7      1328.9454      1328.9454      1328.9454      835.5273       2164.4727      835.5273       2164.4727      835.5273       2164.4727      2.347045e+09   0.22778136     0.5            3003225        0.433677       1759.4482      3518.6488      149.1108     
   6006500   323.01394      1.0808742     -3894434.1      961.88036     -3893472.2      1328.8384      1328.8384      1328.8384      835.58081      2164.4192      835.58081      2164.4192      835.58081      2164.4192      2.3464781e+09  0.2278364      0.5            3003250        0.44484        2239.5413      4479.0827      147.83582    
   6006550   323.09429      1.2555799     -3894496.6      962.11962     -3893534.5      1328.7209      1328.7209      1328.7209      835.63953      2164.3605      835.63953      2164.3605      835.63953      2164.3605      2.345856e+09   0.22789682     0.5            3003275        0.457506       1973.7881      3947.8879      147.12572    
   6006600   323.12656      1.2527785     -3894566.8      962.21572     -3893604.6      1328.6902      1328.6902      1328.6902      835.65491      2164.3451      835.65491      2164.3451      835.65491      2164.3451      2.345693e+09   0.22791265     0.5            3003300        0.468807       2212.1936      4424.3872      146.034      
   6006650   323.07703      0.97995341    -3894648        962.06822     -3893685.9      1328.7884      1328.7884      1328.7884      835.60578      2164.3942      835.60578      2164.3942      835.60578      2164.3942      2.3462134e+09  0.2278621      0.5            3003325        0.481437       1979.4141      3958.8282      145.40917    
   6006700   323.01799      0.77970122    -3894724.4      961.89242     -3893762.5      1328.8517      1328.8517      1328.8517      835.57413      2164.4259      835.57413      2164.4259      835.57413      2164.4259      2.3465488e+09  0.22782953     0.5            3003350        0.49245        2270.0445      4539.6768      144.34637    
   6006750   323.02592      0.91564781    -3894790.4      961.91604     -3893828.5      1328.7551      1328.7551      1328.7551      835.62245      2164.3775      835.62245      2164.3775      835.62245      2164.3775      2.3460369e+09  0.22787925     0.5            3003375        0.503621       2237.9375      4475.875       143.38895    
   6006800   323.0613       1.1548302     -3894851.7      962.0214      -3893889.7      1328.6117      1328.6117      1328.6117      835.69414      2164.3059      835.69414      2164.3059      835.69414      2164.3059      2.3452775e+09  0.22795303     0.5            3003400        0.517652       1781.7689      3563.7919      143.27512    
   6006850   323.03002      1.1062375     -3894923.8      961.92824     -3893961.9      1328.6039      1328.6039      1328.6039      835.69805      2164.302       835.69805      2164.302       835.69805      2164.302       2.3452361e+09  0.22795705     0.5            3003425        0.532085       1732.1416      3464.0432      143.27521    
   6006900   322.94355      0.88033528    -3895001.9      961.67074     -3894040.2      1328.6784      1328.6784      1328.6784      835.66078      2164.3392      835.66078      2164.3392      835.66078      2164.3392      2.3456308e+09  0.2279187      0.5            3003450        0.543236       2241.9514      4484.3049      142.41413    
   6006950   322.90269      0.90320076    -3895071.3      961.54907     -3894109.7      1328.6374      1328.6374      1328.6374      835.6813       2164.3187      835.6813       2164.3187      835.6813       2164.3187      2.3454135e+09  0.22793981     0.5            3003475        0.554515       2216.3121      4432.2312      141.62984    
   6007000   322.82649      1.1132289     -3895134        961.32217     -3894172.7      1328.5107      1328.5107      1328.5107      835.74466      2164.2553      835.74466      2164.2553      835.74466      2164.2553      2.3447425e+09  0.22800504     0.5            3003500        0.566661       2058.6298      4117.2596      141.09909    
   6007050   322.80896      1.1046336     -3897098.4      961.26997     -3896137.1      1328.4739      1328.4739      1328.4739      835.76304      2164.237       835.76304      2164.237       835.76304      2164.237       2.3445479e+09  0.22802397     0.5            3003525        0.578824       2055.245       4110.49        140.59825    
   6007100   322.79088      1.0647562     -3897170        961.21612     -3896208.8      1328.4625      1328.4625      1328.4625      835.76873      2164.2313      835.76873      2164.2313      835.76873      2164.2313      2.3444876e+09  0.22802983     0.5            3003550        0.590219       2193.9447      4388.2745      139.93859    
   6007150   322.75089      0.92143918    -3897245.1      961.09704     -3896284        1328.4982      1328.4982      1328.4982      835.75088      2164.2491      835.75088      2164.2491      835.75088      2164.2491      2.3446766e+09  0.22801145     0.5            3003575        0.601713       2174.8586      4349.7173      139.33224    
   6007200   322.72921      0.90836211    -3897315.6      961.03246     -3896354.5      1328.4744      1328.4744      1328.4744      835.7628       2164.2372      835.7628       2164.2372      835.7628       2164.2372      2.3445504e+09  0.22802372     0.5            3003600        0.61415        2010.2927      4020.5854      138.96585    
   6007250   322.75574      1.1047098     -3897378.8      961.11149     -3896417.7      1328.3552      1328.3552      1328.3552      835.82242      2164.1776      835.82242      2164.1776      835.82242      2164.1776      2.3439191e+09  0.22808513     0.5            3003625        0.625301       2241.9514      4483.5007      138.33092    
   6007300   322.73078      1.0534117     -3897450.7      961.03714     -3896489.7      1328.3486      1328.3486      1328.3486      835.82571      2164.1743      835.82571      2164.1743      835.82571      2164.1743      2.3438842e+09  0.22808853     0.5            3003650        0.640476       1647.4465      3294.8929      138.59409    
   6007350   322.66844      0.87984737    -3897526.5      960.8515      -3896565.6      1328.3974      1328.3974      1328.3974      835.80131      2164.1987      835.80131      2164.1987      835.80131      2164.1987      2.3441427e+09  0.22806338     0.5            3003675        0.651643       2238.9396      4477.8793      137.99623    
   6007400   322.6679       0.99154717    -3897592.9      960.8499      -3896632        1328.3165      1328.3165      1328.3165      835.84176      2164.1582      835.84176      2164.1582      835.84176      2164.1582      2.3437144e+09  0.22810506     0.5            3003700        0.666025       1738.1631      3476.3262      138.08981    
   6007450   322.68459      1.096242      -3899553        960.89961     -3898592.1      1328.2277      1328.2277      1328.2277      835.88615      2164.1138      835.88615      2164.1138      835.88615      2164.1138      2.3432445e+09  0.22815081     0.5            3003725        0.700139       732.81548      1465.631       142.18618    
   6007500   322.67664      1.0679881     -3899624.1      960.87594     -3898663.2      1328.2102      1328.2102      1328.2102      835.8949       2164.1051      835.8949       2164.1051      835.8949       2164.1051      2.3431518e+09  0.22815983     0.5            3003750        0.712625       2002.4029      4004.8058      141.81297    
   6007550   322.66993      1.0039724     -3899696.4      960.85595     -3898735.6      1328.2088      1328.2088      1328.2088      835.8956       2164.1044      835.8956       2164.1044      835.8956       2164.1044      2.3431445e+09  0.22816054     0.5            3003775        0.724225       2155.1724      4310.3448      141.28126    
   6007600   322.6504       0.88623043    -3899770.3      960.7978      -3898809.5      1328.2317      1328.2317      1328.2317      835.88417      2164.1158      835.88417      2164.1158      835.88417      2164.1158      2.3432654e+09  0.22814877     0.5            3003800        0.73569        2180.5495      4361.099       140.74373    
   6007650   322.68839      1.041372      -3899835.2      960.91093     -3898874.3      1328.1308      1328.1308      1328.1308      835.9346       2164.0654      835.9346       2164.0654      835.9346       2164.0654      2.3427317e+09  0.22820074     0.5            3003825        0.747814       2062.0257      4124.0515      140.34973    
   6007700   322.7106       1.0958113     -3899903.2      960.97707     -3898942.3      1328.0755      1328.0755      1328.0755      835.96223      2164.0378      835.96223      2164.0378      835.96223      2164.0378      2.3424392e+09  0.22822924     0.5            3003850        0.759536       2132.7419      4265.4837      139.89565    
   6007750   322.67432      0.92102435    -3899979.3      960.86902     -3899018.5      1328.1242      1328.1242      1328.1242      835.93788      2164.0621      835.93788      2164.0621      835.93788      2164.0621      2.3426969e+09  0.22820413     0.5            3003875        0.770767       2225.9817      4451.9633      139.36923    
   6007800   322.67104      0.936598      -3900048.9      960.85926     -3899088        1328.0867      1328.0867      1328.0867      835.95666      2164.0433      835.95666      2164.0433      835.95666      2164.0433      2.3424981e+09  0.2282235      0.5            3003900        0.782828       2072.7966      4145.5932      139.00842    
   6007850   322.70831      1.1038818     -3900113.1      960.97025     -3899152.2      1327.9804      1327.9804      1327.9804      836.00981      2163.9902      836.00981      2163.9902      836.00981      2163.9902      2.3419358e+09  0.2282783      0.5            3003925        0.794033       2231.1468      4462.6919      138.51035    
   6007900   322.69255      1.0205141     -3900186.2      960.92332     -3899225.3      1327.9878      1327.9878      1327.9878      836.00608      2163.9939      836.00608      2163.9939      836.00608      2163.9939      2.3419752e+09  0.22827445     0.5            3003950        0.805103       2258.5599      4516.7118      138.0061     
   6007950   322.69505      1.0176324     -3900256.4      960.93075     -3899295.5      1327.9589      1327.9589      1327.9589      836.02055      2163.9795      836.02055      2163.9795      836.02055      2163.9795      2.3418221e+09  0.22828937     0.5            3003975        0.824044       1319.8184      2639.6368      138.84494    
   6008000   322.65575      1.0959359     -3907699.6      960.81373     -3906738.8      1327.8672      1327.8672      1327.8672      836.06641      2163.9336      836.06641      2163.9336      836.06641      2163.9336      2.3413369e+09  0.22833668     0.5            3004000        0.837085       1917.0309      3834.0618      138.67741    
   6008050   322.67233      0.95107971    -3907774.9      960.86309     -3906814        1327.9029      1327.9029      1327.9029      836.04854      2163.9515      836.04854      2163.9515      836.04854      2163.9515      2.3415259e+09  0.22831825     0.5            3004025        0.848784       2136.9348      4274.2349      138.29646    
   6008100   322.7535       0.92470981    -3915222.1      961.1048      -3914261        1327.8589      1327.8589      1327.8589      836.07056      2163.9294      836.07056      2163.9294      836.07056      2163.9294      2.341293e+09   0.22834097     0.5            3004050        0.86071        2096.2603      4192.169       137.96396    
   6008150   322.84575      1.0848808     -3915287        961.37952     -3914325.6      1327.7559      1327.7559      1327.7559      836.12203      2163.878       836.12203      2163.878       836.12203      2163.878       2.3407485e+09  0.22839409     0.5            3004075        0.872489       2122.4213      4244.8425      137.6183     
   6008200   322.87439      1.0517835     -3915358.6      961.4648      -3914397.1      1327.7411      1327.7411      1327.7411      836.12947      2163.8705      836.12947      2163.8705      836.12947      2163.8705      2.3406698e+09  0.22840176     0.5            3004100        0.885159       1973.165       3946.3299      137.4214     
   6008250   322.85024      0.90099791    -3915434        961.39289     -3914472.6      1327.7799      1327.7799      1327.7799      836.11006      2163.8899      836.11006      2163.8899      836.11006      2163.8899      2.3408751e+09  0.22838173     0.5            3004125        0.896341       2235.736       4471.472       137.00273    
   6008300   322.85885      0.97115827    -3915502.1      961.41853     -3914540.7      1327.718       1327.718       1327.718       836.14099      2163.859       836.14099      2163.859       836.14099      2163.859       2.340548e+09   0.22841365     0.5            3004150        0.910072       1820.6977      3641.3954      136.98008    
   6008350   322.88151      1.1055249     -3915567.6      961.486       -3914606.2      1327.6265      1327.6265      1327.6265      836.18675      2163.8132      836.18675      2163.8132      836.18675      2163.8132      2.340064e+09   0.22846089     0.5            3004175        0.922052       2086.8114      4173.6227      136.69795    
   6008400   322.84895      1.012256      -3915641.4      961.38905     -3914680        1327.6393      1327.6393      1327.6393      836.18033      2163.8197      836.18033      2163.8197      836.18033      2163.8197      2.3401319e+09  0.22845427     0.5            3004200        0.934705       1975.816       3951.632       136.5222     
   6008450   322.79846      0.8917891     -3915715.7      961.2387      -3914754.4      1327.6646      1327.6646      1327.6646      836.16772      2163.8323      836.16772      2163.8323      836.16772      2163.8323      2.3402653e+09  0.22844125     0.5            3004225        0.946246       2166.1901      4332.3802      136.19129    
   6008500   322.79509      0.98964251    -3915782.7      961.22864     -3914821.5      1327.5891      1327.5891      1327.5891      836.20543      2163.7946      836.20543      2163.7946      836.20543      2163.7946      2.3398665e+09  0.22848018     0.5            3004250        0.958673       2011.7486      4023.4972      135.9949     
   6008550   322.80572      1.1074185     -3915848.6      961.26031     -3914887.3      1327.5032      1327.5032      1327.5032      836.24838      2163.7516      836.24838      2163.7516      836.24838      2163.7516      2.3394123e+09  0.22852453     0.5            3004275        0.970488       2115.9543      4231.9086      135.71838    
   6008600   322.77735      1.0340439     -3915921.5      961.17584     -3914960.3      1327.5062      1327.5062      1327.5062      836.24691      2163.7531      836.24691      2163.7531      836.24691      2163.7531      2.3394279e+09  0.22852302     0.5            3004300        0.984451       1790.4462      3580.8924      135.74513    
   6008650   322.73367      0.90428723    -3915996.1      961.04575     -3915035.1      1327.5354      1327.5354      1327.5354      836.23228      2163.7677      836.23228      2163.7677      836.23228      2163.7677      2.3395825e+09  0.22850791     0.5            3004325        0.99675        2032.6856      4065.7017      135.54462    
   6008700   322.72516      0.91940695    -3916065.7      961.02041     -3915104.7      1327.4962      1327.4962      1327.4962      836.25189      2163.7481      836.25189      2163.7481      836.25189      2163.7481      2.3393752e+09  0.22852816     0.5            3004350        1.008649       2101.0169      4201.6807      135.29554    
   6008750   322.7527       1.0438491     -3916131.4      961.10242     -3915170.3      1327.404       1327.404       1327.404       836.29801      2163.702       836.29801      2163.702       836.29801      2163.702       2.3388876e+09  0.22857581     0.5            3004375        1.020002       2202.0611      4404.5102      134.98053    
   6008800   322.77974      1.1124929     -3916198.7      961.18295     -3915237.5      1327.3369      1327.3369      1327.3369      836.33154      2163.6685      836.33154      2163.6685      836.33154      2163.6685      2.3385332e+09  0.22861045     0.5            3004400        1.033978       1788.9088      3577.5615      135.01602    
   6008850   322.7854       1.0600737     -3916270.8      961.19979     -3915309.6      1327.3281      1327.3281      1327.3281      836.33597      2163.664       836.33597      2163.664       836.33597      2163.664       2.3384863e+09  0.22861503     0.5            3004425        1.045315       2204.9744      4410.3378      134.71014    
   6008900   322.78081      0.95268565    -3916344.8      961.18613     -3915383.6      1327.3458      1327.3458      1327.3458      836.32708      2163.6729      836.32708      2163.6729      836.32708      2163.6729      2.3385802e+09  0.22860585     0.5            3004450        1.058275       1929.0123      3857.727       134.61839    
   6008950   322.78843      0.88624447    -3916417.1      961.20881     -3915455.9      1327.3434      1327.3434      1327.3434      836.3283       2163.6717      836.3283       2163.6717      836.3283       2163.6717      2.3385673e+09  0.22860711     0.5            3004475        1.069856       2158.7082      4317.7893      134.35521    
   6009000   322.73725      0.90457666    -3916486.6      961.05643     -3915525.5      1327.2991      1327.2991      1327.2991      836.35044      2163.6496      836.35044      2163.6496      836.35044      2163.6496      2.3383333e+09  0.22862999     0.5            3004500        1.085047       1645.8196      3291.4226      134.54608    
   6009050   322.79632      0.96753159    -3916554.4      961.23231     -3915593.2      1327.2324      1327.2324      1327.2324      836.38382      2163.6162      836.38382      2163.6162      836.38382      2163.6162      2.3379805e+09  0.22866448     0.5            3004525        1.099531       1725.9234      3452.0851      134.64528    
   6009100   322.85155      0.94792005    -3916625.3      961.3968      -3915663.9      1327.2063      1327.2063      1327.2063      836.39684      2163.6032      836.39684      2163.6032      836.39684      2163.6032      2.3378428e+09  0.22867795     0.5            3004550        1.111986       2007.3872      4014.452       134.4963     
   6009150   322.9026       0.90926563    -3916696.8      961.54882     -3915735.2      1327.1897      1327.1897      1327.1897      836.40515      2163.5949      836.40515      2163.5949      836.40515      2163.5949      2.3377551e+09  0.22868653     0.5            3004575        1.123656       2142.0615      4284.4901      134.25682    
   6009200   322.95535      0.89610147    -3916767.5      961.70589     -3915805.8      1327.1604      1327.1604      1327.1604      836.41978      2163.5802      836.41978      2163.5802      836.41978      2163.5802      2.3376005e+09  0.22870166     0.5            3004600        1.136454       1953.4302      3906.5552      134.15604    
   6009250   323.00576      0.89971157    -3916837.7      961.856       -3915875.8      1327.1229      1327.1229      1327.1229      836.43856      2163.5614      836.43856      2163.5614      836.43856      2163.5614      2.337402e+09   0.22872108     0.5            3004625        1.147678       2227.3699      4455.1368      133.8735     
   6009300   323.04845      0.88281559    -3918802.7      961.98313     -3917840.7      1327.0836      1327.0836      1327.0836      836.4582       2163.5418      836.4582       2163.5418      836.4582       2163.5418      2.3371944e+09  0.22874139     0.5            3004650        1.159866       2051.1979      4102.3958      133.7085     
   6009350   323.09765      0.94536127    -3918871        962.12963     -3917908.9      1327.0169      1327.0169      1327.0169      836.49155      2163.5085      836.49155      2163.5085      836.49155      2163.5085      2.3368421e+09  0.22877588     0.5            3004675        1.171714       2110.0608      4219.7654      133.50828    
   6009400   323.15068      1.0420041     -3918937.9      962.28755     -3917975.6      1326.9334      1326.9334      1326.9334      836.53328      2163.4667      836.53328      2163.4667      836.53328      2163.4667      2.3364012e+09  0.22881905     0.5            3004700        1.18485        1903.1669      3806.6235      133.45742    
   6009450   323.19586      1.122091      -3919005.2      962.42209     -3918042.8      1326.8587      1326.8587      1326.8587      836.57063      2163.4294      836.57063      2163.4294      836.57063      2163.4294      2.3360066e+09  0.2288577      0.5            3004725        1.198324       1855.4253      3710.8505      133.44504    
   6009500   323.21946      1.1342129     -3919075.4      962.49235     -3918112.9      1326.8184      1326.8184      1326.8184      836.59081      2163.4092      836.59081      2163.4092      836.59081      2163.4092      2.3357935e+09  0.22887859     0.5            3004750        1.211005       1971.4534      3942.5958      133.34533    
   6009550   323.21435      1.0592469     -3919149.2      962.47714     -3918186.7      1326.8215      1326.8215      1326.8215      836.58926      2163.4107      836.58926      2163.4107      836.58926      2163.4107      2.3358098e+09  0.22887699     0.5            3004775        1.222277       2217.885       4435.77        133.09409    
   6009600   323.18767      0.93569156    -3919224.5      962.39771     -3918262.1      1326.8486      1326.8486      1326.8486      836.5757       2163.4243      836.5757       2163.4243      836.5757       2163.4243      2.3359531e+09  0.22886295     0.5            3004800        1.235099       1949.9259      3899.8518      133.01501    
   6009650   323.16018      0.84930581    -3919298.2      962.31584     -3918335.9      1326.8573      1326.8573      1326.8573      836.57133      2163.4287      836.57133      2163.4287      836.57133      2163.4287      2.3359992e+09  0.22885843     0.5            3004825        1.248048       1930.5019      3861.0039      132.95087    
   6009700   323.15382      0.87690129    -3919368.1      962.29691     -3918405.8      1326.8102      1326.8102      1326.8102      836.59488      2163.4051      836.59488      2163.4051      836.59488      2163.4051      2.3357504e+09  0.2288828      0.5            3004850        1.260308       2039.1517      4078.6361      132.81522    
   6009750   323.17301      1.0142324     -3919434.2      962.35404     -3918471.8      1326.7099      1326.7099      1326.7099      836.64504      2163.355       836.64504      2163.355       836.64504      2163.355       2.3352207e+09  0.22893473     0.5            3004875        1.275697       1624.537       3248.8629      133.00851    
   6009800   323.19486      1.152062      -3919499.6      962.4191      -3918537.2      1326.6104      1326.6104      1326.6104      836.69478      2163.3052      836.69478      2163.3052      836.69478      2163.3052      2.3346954e+09  0.22898623     0.5            3004900        1.286782       2255.3         4511.0069      132.75322    
   6009850   323.18317      1.1469938     -3919570.7      962.38429     -3918608.3      1326.5808      1326.5808      1326.5808      836.70958      2163.2904      836.70958      2163.2904      836.70958      2163.2904      2.3345391e+09  0.22900157     0.5            3004925        1.29798        2232.5415      4465.0831      132.5146     
   6009900   323.12595      0.97619583    -3919648.2      962.21391     -3918686        1326.6309      1326.6309      1326.6309      836.68454      2163.3155      836.68454      2163.3155      836.68454      2163.3155      2.3348036e+09  0.22897563     0.5            3004950        1.309927       2092.5755      4184.8008      132.3564     
   6009950   323.06139      0.8189999     -3919724.1      962.02164     -3918762.1      1326.6743      1326.6743      1326.6743      836.66286      2163.3371      836.66286      2163.3371      836.66286      2163.3371      2.3350324e+09  0.22895318     0.5            3004975        1.321544       2152.0186      4304.0372      132.16795    
   6010000   322.966        0.882873      -3919793.1      961.73761     -3918831.3      1326.6117      1326.6117      1326.6117      836.69417      2163.3058      836.69417      2163.3058      836.69417      2163.3058      2.3347019e+09  0.2289856      0.5            3005000        1.335332       1813.1709      3626.6048      132.19807    
   6010050   323.0042       1.1145254     -3919855.7      961.85136     -3918893.9      1326.4702      1326.4702      1326.4702      836.76492      2163.2351      836.76492      2163.2351      836.76492      2163.2351      2.3339549e+09  0.22905889     0.5            3005025        1.349077       1818.9756      3637.6864      132.2231     
   6010100   323.02617      1.1970749     -3919923.2      961.91677     -3918961.3      1326.4001      1326.4001      1326.4001      836.79994      2163.2001      836.79994      2163.2001      836.79994      2163.2001      2.3335851e+09  0.22909518     0.5            3005050        1.362618       1846.2447      3692.4895      132.22758    
   6010150   322.97538      0.98199671    -3920002.4      961.76552     -3919040.6      1326.4699      1326.4699      1326.4699      836.76503      2163.235       836.76503      2163.235       836.76503      2163.235       2.3339538e+09  0.229059       0.5            3005075        1.37388        2219.6573      4439.7088      132.01272    
   6010200   322.91353      0.78131893    -3920079.4      961.58135     -3919117.9      1326.5328      1326.5328      1326.5328      836.73358      2163.2664      836.73358      2163.2664      836.73358      2163.2664      2.3342857e+09  0.22902643     0.5            3005100        1.386867       1925.0019      3849.7074      131.96592    
   6010250   322.92969      0.9307502     -3920145.8      961.62946     -3919184.2      1326.4312      1326.4312      1326.4312      836.78442      2163.2156      836.78442      2163.2156      836.78442      2163.2156      2.333749e+09   0.2290791      0.5            3005125        1.402155       1635.2695      3270.539       132.1367     
   6010300   322.99         1.2089098     -3920206.2      961.80907     -3919244.4      1326.2701      1326.2701      1326.2701      836.86496      2163.135       836.86496      2163.135       836.86496      2163.135       2.3328989e+09  0.22916257     0.5            3005150        1.41817        1561.134       3122.268       132.37164    
   6010350   322.97984      1.1366276     -3920280        961.77881     -3919318.3      1326.2724      1326.2724      1326.2724      836.86379      2163.1362      836.86379      2163.1362      836.86379      2163.1362      2.3329113e+09  0.22916136     0.5            3005175        1.430728       1990.6043      3981.2087      132.28245    
   6010400   322.90231      0.81655819    -3920361.8      961.54793     -3919400.2      1326.3899      1326.3899      1326.3899      836.80504      2163.195       836.80504      2163.195       836.80504      2163.195       2.3335313e+09  0.22910046     0.5            3005200        1.442301       2160.2005      4320.7743      132.10427    
   6010450   322.88666      0.81198864    -3920432.7      961.50134     -3919471.2      1326.3605      1326.3605      1326.3605      836.81977      2163.1802      836.81977      2163.1802      836.81977      2163.1802      2.3333759e+09  0.22911573     0.5            3005225        1.455067       1958.3268      3916.3468      132.0375     
   6010500   322.96218      1.1519954     -3920492        961.72622     -3919530.2      1326.1712      1326.1712      1326.1712      836.91442      2163.0856      836.91442      2163.0856      836.91442      2163.0856      2.332377e+09   0.22921385     0.5            3005250        1.473901       1327.3866      2654.7733      132.51737    
   6010550   322.99385      1.2270421     -3920559.7      961.82052     -3919597.9      1326.1049      1326.1049      1326.1049      836.94756      2163.0524      836.94756      2163.0524      836.94756      2163.0524      2.3320272e+09  0.22924823     0.5            3005275        1.487365       1856.8033      3713.6067      132.50966    
   6010600   322.92264      0.88587012    -3920643.1      961.60848     -3919681.5      1326.2317      1326.2317      1326.2317      836.88417      2163.1158      836.88417      2163.1158      836.88417      2163.1158      2.3326961e+09  0.22918249     0.5            3005300        1.498765       2192.9825      4386.3497      132.31972    
   6010650   322.87878      0.74169969    -3920718        961.47787     -3919756.6      1326.2669      1326.2669      1326.2669      836.86654      2163.1335      836.86654      2163.1335      836.86654      2163.1335      2.3328822e+09  0.22916421     0.5            3005325        1.514156       1624.3259      3248.4407      132.48221    
   6010700   322.94699      1.0658469     -3920778.7      961.681       -3919817        1326.0851      1326.0851      1326.0851      836.95747      2163.0425      836.95747      2163.0425      836.95747      2163.0425      2.3319227e+09  0.22925851     0.5            3005350        1.527472       1877.4407      3754.8813      132.46147    
   6010750   323.00945      1.2799549     -3920840.7      961.86699     -3919878.9      1325.9536      1325.9536      1325.9536      837.02318      2162.9768      837.02318      2162.9768      837.02318      2162.9768      2.3312294e+09  0.22932668     0.5            3005375        1.540684       1892.2192      3784.7249      132.43201    
   6010800   323.00853      1.2005944     -3920915        961.86426     -3919953.2      1325.9588      1325.9588      1325.9588      837.02061      2162.9794      837.02061      2162.9794      837.02061      2162.9794      2.3312566e+09  0.22932401     0.5            3005400        1.551811       2246.7871      4493.5742      132.22517    
   6010850   323.05115      1.1732863     -3935738.1      961.99116     -3934776.1      1325.8853      1325.8853      1325.8853      837.05737      2162.9426      837.05737      2162.9426      837.05737      2162.9426      2.3308688e+09  0.22936216     0.5            3005425        1.570856       1312.6805      2625.2231      132.69059    
   6010900   323.05337      1.0133091     -3943191.2      961.99776     -3942229.2      1325.901       1325.901       1325.901       837.0495       2162.9505      837.0495       2162.9505      837.0495       2162.9505      2.3309519e+09  0.22935399     0.5            3005450        1.587754       1479.5526      2959.1052      132.96784    
   6010950   323.02501      0.72570529    -3921143.6      961.91332     -3920181.7      1326.0844      1326.0844      1326.0844      836.95782      2163.0422      836.95782      2163.0422      836.95782      2163.0422      2.331919e+09   0.22925887     0.5            3005475        1.600026       2036.8258      4073.3198      132.85636    
   6011000   323.12878      1.0673141     -3943332        962.22233     -3942369.7      1325.8097      1325.8097      1325.8097      837.09515      2162.9048      837.09515      2162.9048      837.09515      2162.9048      2.3304703e+09  0.22940138     0.5            3005500        1.612568       1993.4614      3987.5588      132.76826    
   6011050   323.23962      1.3493013     -3943391        962.55238     -3942428.4      1325.6417      1325.6417      1325.6417      837.17916      2162.8208      837.17916      2162.8208      837.17916      2162.8208      2.3295844e+09  0.22948862     0.5            3005525        1.626766       1760.8114      3521.3747      132.81687    
   6011100   323.33374      1.3507748     -3943462.3      962.83266     -3942499.5      1325.6073      1325.6073      1325.6073      837.19633      2162.8037      837.19633      2162.8037      837.19633      2162.8037      2.3294034e+09  0.22950645     0.5            3005550        1.639631       1943.2569      3886.8159      132.75651    
   6011150   323.41511      1.2559666     -3943538.2      963.07497     -3942575.1      1325.6191      1325.6191      1325.6191      837.19045      2162.8096      837.19045      2162.8096      837.19045      2162.8096      2.3294654e+09  0.22950034     0.5            3005575        1.653111       1854.5994      3708.9237      132.74632    
   6011200   323.39135      0.86675106    -3943624.6      963.00422     -3942661.6      1325.7716      1325.7716      1325.7716      837.11421      2162.8858      837.11421      2162.8858      837.11421      2162.8858      2.3302693e+09  0.22942117     0.5            3005600        1.664986       2105.2632      4210.8809      132.60824    
   6011250   323.36943      0.64180578    -3943702.1      962.93894     -3942739.2      1325.8451      1325.8451      1325.8451      837.07743      2162.9226      837.07743      2162.9226      837.07743      2162.9226      2.3306573e+09  0.22938298     0.5            3005625        1.676201       2229.1574      4457.9173      132.42004    
   6011300   323.43261      0.83995958    -3943768.4      963.12707     -3942805.3      1325.7168      1325.7168      1325.7168      837.14158      2162.8584      837.14158      2162.8584      837.14158      2162.8584      2.3299806e+09  0.2294496      0.5            3005650        1.689069       1942.8039      3885.6077      132.36426    
   6011350   323.54481      1.2150985     -3943826.1      963.46121     -3942862.6      1325.5034      1325.5034      1325.5034      837.24828      2162.7517      837.24828      2162.7517      837.24828      2162.7517      2.3288557e+09  0.22956043     0.5            3005675        1.700699       2149.6131      4299.2261      132.21276    
   6011400   323.60381      1.3299973     -3943892.4      963.63688     -3942928.8      1325.4143      1325.4143      1325.4143      837.29285      2162.7071      837.29285      2162.7071      837.29285      2162.7071      2.3283858e+09  0.22960675     0.5            3005700        1.712442       2128.9279      4257.8557      132.07232    
   6011450   323.56612      1.0687048     -3943975.4      963.52466     -3943011.9      1325.5058      1325.5058      1325.5058      837.24711      2162.7529      837.24711      2162.7529      837.24711      2162.7529      2.328868e+09   0.22955921     0.5            3005725        1.723663       2227.9654      4455.9308      131.89385    
   6011500   323.50054      0.75980254    -3944057.2      963.32937     -3943093.9      1325.6196      1325.6196      1325.6196      837.1902       2162.8098      837.1902       2162.8098      837.1902       2162.8098      2.329468e+09   0.22950009     0.5            3005750        1.736177       1997.7625      3995.8443      131.81605    
   6011550   323.49814      0.69794094    -3944130.5      963.32222     -3943167.2      1325.6152      1325.6152      1325.6152      837.1924       2162.8076      837.1924       2162.8076      837.1924       2162.8076      2.3294448e+09  0.22950238     0.5            3005775        1.749183       1922.3376      3844.3795      131.77639    
   6011600   323.51997      0.71255815    -3944201.9      963.38724     -3943238.5      1325.5742      1325.5742      1325.5742      837.21289      2162.7871      837.21289      2162.7871      837.21289      2162.7871      2.3292287e+09  0.22952366     0.5            3005800        1.761148       2089.4275      4178.855       131.6593     
   6011650   323.53407      0.70084827    -3944274        963.42921     -3943310.6      1325.5458      1325.5458      1325.5458      837.22712      2162.7729      837.22712      2162.7729      837.22712      2162.7729      2.3290787e+09  0.22953844     0.5            3005825        1.772697       2164.6896      4329.3792      131.51294    
   6011700   323.56312      0.73494763    -3944344.9      963.51573     -3943381.4      1325.4954      1325.4954      1325.4954      837.25231      2162.7477      837.25231      2162.7477      837.25231      2162.7477      2.3288132e+09  0.22956462     0.5            3005850        1.78568        1925.4467      3851.19        131.47417    
   6011750   323.67231      0.97689253    -3951785.4      963.84087     -3950821.5      1325.3181      1325.3181      1325.3181      837.34093      2162.6591      837.34093      2162.6591      837.34093      2162.6591      2.3278792e+09  0.22965673     0.5            3005875        1.797709       2078.3107      4156.6215      131.36607    
   6011800   323.76957      1.222724      -3961117.3      964.1305      -3960153.1      1325.128       1325.128       1325.128       837.43599      2162.564       837.43599      2162.564       837.43599      2162.564       2.3268775e+09  0.22975559     0.5            3005900        1.809683       2087.857       4175.3653      131.25546    
   6011850   323.74086      0.9812662     -3961199.2      964.04499     -3960235.1      1325.2096      1325.2096      1325.2096      837.39519      2162.6048      837.39519      2162.6048      837.39519      2162.6048      2.3273074e+09  0.22971315     0.5            3005925        1.824145       1728.6682      3457.3365      131.32527    
   6011900   323.73648      0.85291439    -3952005.7      964.03195     -3951041.7      1325.2762      1325.2762      1325.2762      837.3619       2162.6381      837.3619       2162.6381      837.3619       2162.6381      2.3276581e+09  0.22967854     0.5            3005950        1.836415       2037.4898      4074.9796      131.23728    
   6011950   323.77513      0.83641011    -3952078.4      964.14705     -3951114.3      1325.2506      1325.2506      1325.2506      837.37469      2162.6253      837.37469      2162.6253      837.37469      2162.6253      2.3275233e+09  0.22969184     0.5            3005975        1.850754       1743.4968      3486.9935      131.29716    
   6012000   323.74819      0.84822281    -3961420.8      964.06682     -3960456.8      1325.173       1325.173       1325.173       837.41348      2162.5865      837.41348      2162.5865      837.41348      2162.5865      2.3271146e+09  0.22973218     0.5            3006000        1.864182       1861.7814      3723.5627      131.29182    
   6012050   323.84557      1.1224939     -3961483.7      964.35682     -3960519.4      1325.0111      1325.0111      1325.0111      837.49444      2162.5056      837.49444      2162.5056      837.49444      2162.5056      2.3262617e+09  0.22981641     0.5            3006025        1.875609       2187.8008      4375.6016      131.14645    
   6012100   323.90294      1.2035396     -3961553        964.52764     -3960588.4      1324.941       1324.941       1324.941       837.5295       2162.4705      837.5295       2162.4705      837.5295       2162.4705      2.3258924e+09  0.2298529      0.5            3006050        1.888222       1982.082       3964.164       131.0853     
   6012150   323.87182      0.97787645    -3961634.2      964.43497     -3960669.8      1325.0144      1325.0144      1325.0144      837.49282      2162.5072      837.49282      2162.5072      837.49282      2162.5072      2.3262787e+09  0.22981473     0.5            3006075        1.899669       2183.9783      4367.9567      130.94445    
   6012200   323.82827      0.80317778    -3961712.3      964.30528     -3960748        1325.0638      1325.0638      1325.0638      837.46812      2162.5319      837.46812      2162.5319      837.46812      2162.5319      2.326539e+09   0.22978902     0.5            3006100        1.91236        1969.8999      3940.1103      130.89055    
   6012250   323.85106      0.95495107    -3961780.2      964.37315     -3960815.9      1324.961       1324.961       1324.961       837.51949      2162.4805      837.51949      2162.4805      837.51949      2162.4805      2.3259978e+09  0.22984249     0.5            3006125        1.923882       2169.9505      4337.6421      130.75811    
   6012300   323.89572      1.1709983     -3961844.9      964.50614     -3960880.4      1324.8293      1324.8293      1324.8293      837.58537      2162.4146      837.58537      2162.4146      837.58537      2162.4146      2.3253039e+09  0.22991107     0.5            3006150        1.936447       1989.4955      3980.5748      130.69704    
   6012350   323.8716       1.0800965     -3961921.1      964.43432     -3960956.7      1324.8397      1324.8397      1324.8397      837.58016      2162.4198      837.58016      2162.4198      837.58016      2162.4198      2.3253589e+09  0.22990564     0.5            3006175        1.949376       1933.6376      3867.2751      130.66137    
   6012400   323.80326      0.85336139    -3962001.4      964.23082     -3961037.2      1324.9127      1324.9127      1324.9127      837.54366      2162.4563      837.54366      2162.4563      837.54366      2162.4563      2.3257433e+09  0.22986764     0.5            3006200        1.962548       1897.9654      3795.9308      130.64218    
   6012450   323.79123      0.90863439    -3962072.4      964.195       -3961108.2      1324.8557      1324.8557      1324.8557      837.57216      2162.4278      837.57216      2162.4278      837.57216      2162.4278      2.3254431e+09  0.22989731     0.5            3006225        1.97382        2218.0818      4436.1636      130.49745    
   6012500   323.82722      1.1353935     -3962137.2      964.30216     -3961172.9      1324.7208      1324.7208      1324.7208      837.63959      2162.3604      837.63959      2162.3604      837.63959      2162.3604      2.3247331e+09  0.22996752     0.5            3006250        1.986376       1991.08        3982.1599      130.43882    
   6012550   323.8057       1.0814176     -3962212.1      964.23807     -3961247.8      1324.7147      1324.7147      1324.7147      837.64267      2162.3573      837.64267      2162.3573      837.64267      2162.3573      2.3247005e+09  0.22997074     0.5            3006275        1.998145       2124.2247      4248.4493      130.32947    
   6012600   323.73475      0.86153164    -3962292.1      964.0268      -3961328.1      1324.7838      1324.7838      1324.7838      837.60808      2162.3919      837.60808      2162.3919      837.60808      2162.3919      2.3250648e+09  0.22993471     0.5            3006300        2.009885       2129.2905      4258.581       130.21959    
   6012650   323.72534      0.95042261    -3962362.2      963.99878     -3961398.2      1324.713       1324.713       1324.713       837.64349      2162.3565      837.64349      2162.3565      837.64349      2162.3565      2.324692e+09   0.22997159     0.5            3006325        2.023856       1789.549       3579.0981      130.25444    
   6012700   323.74945      1.1473183     -3962428        964.07058     -3961464        1324.5946      1324.5946      1324.5946      837.70268      2162.2973      837.70268      2162.2973      837.70268      2162.2973      2.3240688e+09  0.23003326     0.5            3006350        2.036309       2007.3872      4015.0968      130.19168    
   6012750   323.69488      0.99167511    -3962506.4      963.90808     -3961542.5      1324.6347      1324.6347      1324.6347      837.68265      2162.3174      837.68265      2162.3174      837.68265      2162.3174      2.3242797e+09  0.23001238     0.5            3006375        2.048326       2080.3861      4160.7722      130.10187    
   6012800   323.62995      0.86208029    -3962583.2      963.71473     -3961619.5      1324.6632      1324.6632      1324.6632      837.66842      2162.3316      837.66842      2162.3316      837.66842      2162.3316      2.3244295e+09  0.22999756     0.5            3006400        2.062765       1731.4218      3462.8437      130.16589    
   6012850   323.64114      1.0765171     -3962649.1      963.74806     -3961685.4      1324.5383      1324.5383      1324.5383      837.73084      2162.2692      837.73084      2162.2692      837.73084      2162.2692      2.3237723e+09  0.2300626      0.5            3006425        2.075978       1892.076       3783.8656      130.15211    
   6012900   323.61678      1.0929763     -3962721.3      963.6755      -3961757.7      1324.502       1324.502       1324.502       837.749        2162.251       837.749        2162.251       837.749        2162.251       2.3235812e+09  0.23008152     0.5            3006450        2.088397       2013.0445      4026.0891      130.08882    
   6012950   323.52873      0.87407319    -3962801.2      963.41332     -3961837.8      1324.5705      1324.5705      1324.5705      837.71476      2162.2852      837.71476      2162.2852      837.71476      2162.2852      2.3239417e+09  0.23004584     0.5            3006475        2.101226       1948.71        3897.4199      130.05148    
   6013000   323.42288      0.97899755    -3962870.7      963.09811     -3961907.6      1324.495       1324.495       1324.495       837.75252      2162.2475      837.75252      2162.2475      837.75252      2162.2475      2.3235441e+09  0.2300852      0.5            3006500        2.11392        1969.4344      3939.1791      130.0062     
   6013050   323.42946      1.1348796     -3962937.8      963.11769     -3961974.7      1324.3966      1324.3966      1324.3966      837.8017       2162.1983      837.8017       2162.1983      837.8017       2162.1983      2.3230265e+09  0.23013646     0.5            3006525        2.126552       1979.1007      3957.8881      129.95761    
   6013100   323.36832      0.95094807    -3963016.8      962.93565     -3962053.9      1324.4497      1324.4497      1324.4497      837.77513      2162.2249      837.77513      2162.2249      837.77513      2162.2249      2.3233061e+09  0.23010877     0.5            3006550        2.14026        1823.7526      3647.5051      129.97468    
   6013150   323.3227       0.87007637    -3963091.8      962.79978     -3962129        1324.4569      1324.4569      1324.4569      837.77156      2162.2284      837.77156      2162.2284      837.77156      2162.2284      2.3233438e+09  0.23010504     0.5            3006575        2.151859       2155.3582      4310.7164      129.86415    
   6013200   323.30724      0.90400032    -3963163.3      962.75376     -3962200.5      1324.4126      1324.4126      1324.4126      837.79368      2162.2063      837.79368      2162.2063      837.79368      2162.2063      2.3231109e+09  0.23012811     0.5            3006600        2.165869       1784.4397      3568.8794      129.89943    
   6013250   323.32058      0.9177984     -3965129.4      962.79348     -3964166.6      1324.3662      1324.3662      1324.3662      837.81688      2162.1831      837.81688      2162.1831      837.81688      2162.1831      2.3228667e+09  0.2301523      0.5            3006625        2.178636       1958.1734      3916.6536      129.86003    
   6013300   323.34953      0.98991744    -3972575.5      962.87968     -3971612.7      1324.278       1324.278       1324.278       837.86102      2162.139       837.86102      2162.139       837.86102      2162.139       2.3224023e+09  0.23019832     0.5            3006650        2.189965       2206.7261      4413.0627      129.73576    
   6013350   323.36722      1.102857      -3972644        962.93235     -3971681.1      1324.1965      1324.1965      1324.1965      837.90174      2162.0983      837.90174      2162.0983      837.90174      2162.0983      2.3219738e+09  0.2302408      0.5            3006675        2.201303       2204.9744      4409.9488      129.61337    
   6013400   323.33892      0.96815578    -3972721.3      962.8481      -3971758.4      1324.2275      1324.2275      1324.2275      837.88626      2162.1137      837.88626      2162.1137      837.88626      2162.1137      2.3221367e+09  0.23022465     0.5            3006700        2.213928       1980.198       3960.7098      129.56762    
   6013450   323.30452      0.85948554    -3972797.1      962.74564     -3971834.3      1324.2466      1324.2466      1324.2466      837.87672      2162.1233      837.87672      2162.1233      837.87672      2162.1233      2.3222371e+09  0.2302147      0.5            3006725        2.228814       1679.5432      3358.8607      129.65379    
   6013500   323.30235      0.8762365     -3972869        962.73918     -3971906.2      1324.2082      1324.2082      1324.2082      837.89592      2162.1041      837.89592      2162.1041      837.89592      2162.1041      2.3220351e+09  0.23023473     0.5            3006750        2.240227       2190.4845      4380.9691      129.53795    
   6013550   323.30143      0.85633809    -3972941.9      962.73644     -3971979.2      1324.1862      1324.1862      1324.1862      837.90688      2162.0931      837.90688      2162.0931      837.90688      2162.0931      2.3219198e+09  0.23024616     0.5            3006775        2.251651       2188.3754      4376.7507      129.42396    
   6013600   323.32746      0.95676683    -3973011.1      962.81397     -3972048.3      1324.1085      1324.1085      1324.1085      837.94577      2162.0542      837.94577      2162.0542      837.94577      2162.0542      2.3215107e+09  0.23028673     0.5            3006800        2.265526       1801.672       3603.6036      129.45122    
   6013650   323.36223      1.0442256     -3980456.4      962.91751     -3979493.5      1324.009       1324.009       1324.009       837.9955       2162.0045      837.9955       2162.0045      837.9955       2162.0045      2.3209876e+09  0.23033864     0.5            3006825        2.278105       1987.4394      3974.5628      129.40438    
   6013700   323.38265      1.1364621     -3980525.2      962.97832     -3979562.3      1323.9335      1323.9335      1323.9335      838.03325      2161.9667      838.03325      2161.9667      838.03325      2161.9667      2.3205905e+09  0.23037805     0.5            3006850        2.28924        2245.3745      4490.7491      129.27639    
   6013750   323.39443      1.1266132     -3980598        963.01338     -3979635        1323.9052      1323.9052      1323.9052      838.0474       2161.9526      838.0474       2161.9526      838.0474       2161.9526      2.3204418e+09  0.23039282     0.5            3006875        2.300711       2179.219       4358.4379      129.1686     
   6013800   323.37677      0.95479484    -3980676.6      962.9608      -3979713.6      1323.9525      1323.9525      1323.9525      838.02373      2161.9763      838.02373      2161.9763      838.02373      2161.9763      2.3206906e+09  0.23036811     0.5            3006900        2.313524       1951.2957      3902.5913      129.13681    
   6013850   323.3672       0.8502387     -3980752.3      962.9323      -3979789.3      1323.9683      1323.9683      1323.9683      838.01586      2161.9841      838.01586      2161.9841      838.01586      2161.9841      2.3207734e+09  0.23035989     0.5            3006925        2.326201       1972.0754      3944.1508      129.0977     
   6013900   323.41007      0.96228501    -3980821.2      963.05997     -3979858.1      1323.8822      1323.8822      1323.8822      838.05891      2161.9411      838.05891      2161.9411      838.05891      2161.9411      2.3203206e+09  0.23040484     0.5            3006950        2.337305       2251.2382      4501.2604      128.9723     
   6013950   323.47701      1.1288692     -3980887.5      963.25929     -3979924.3      1323.7704      1323.7704      1323.7704      838.11482      2161.8852      838.11482      2161.8852      838.11482      2161.8852      2.3197328e+09  0.23046323     0.5            3006975        2.348955       2146.107       4293.3196      128.87769    
   6014000   323.43015      1.1105892     -3980960.8      963.11977     -3979997.6      1323.7453      1323.7453      1323.7453      838.12734      2161.8727      838.12734      2161.8727      838.12734      2161.8727      2.3196011e+09  0.23047631     0.5            3007000        2.363547       1713.1501      3426.5351      128.94473    
   6014050   323.4459       0.98885752    -3981037.7      963.16665     -3980074.6      1323.7687      1323.7687      1323.7687      838.11564      2161.8844      838.11564      2161.8844      838.11564      2161.8844      2.3197242e+09  0.23046409     0.5            3007025        2.376293       1961.3997      3922.4916      128.91072    
   6014100   323.4791       0.90625349    -3981113        963.26551     -3980149.8      1323.7739      1323.7739      1323.7739      838.11307      2161.8869      838.11307      2161.8869      838.11307      2161.8869      2.3197512e+09  0.2304614      0.5            3007050        2.38886        1989.4955      3978.9909      128.86729    
   6014150   323.51618      0.86363242    -3981187        963.37594     -3980223.6      1323.7604      1323.7604      1323.7604      838.11979      2161.8802      838.11979      2161.8802      838.11979      2161.8802      2.3196805e+09  0.23046842     0.5            3007075        2.403402       1719.0401      3438.0802      128.93015    
   6014200   323.58371      0.96385151    -3981624.5      963.57704     -3980661        1323.6726      1323.6726      1323.6726      838.16369      2161.8363      838.16369      2161.8363      838.16369      2161.8363      2.3192189e+09  0.23051429     0.5            3007100        2.416761       1871.3976      3742.7951      128.92905    
   6014250   323.66502      1.144954      -3981690.8      963.81915     -3980727        1323.5564      1323.5564      1323.5564      838.22181      2161.7782      838.22181      2161.7782      838.22181      2161.7782      2.318608e+09   0.23057503     0.5            3007125        2.429678       1935.5838      3871.1675      128.90437    
   6014300   323.6841       1.0754795     -3981766.3      963.87598     -3980802.5      1323.5562      1323.5562      1323.5562      838.22188      2161.7781      838.22188      2161.7781      838.22188      2161.7781      2.3186073e+09  0.2305751      0.5            3007150        2.440879       2231.9436      4463.8872      128.78928    
   6014350   323.65354      0.86716643    -3981846.2      963.78499     -3980882.4      1323.62        1323.62        1323.62        838.19         2161.81        838.19         2161.81        838.19         2161.81        2.3189424e+09  0.23054178     0.5            3007175        2.452376       2174.4803      4348.9606      128.69083    
   6014400   323.66491      0.9065457     -3981917.9      963.81882     -3980954.1      1323.5701      1323.5701      1323.5701      838.21494      2161.7851      838.21494      2161.7851      838.21494      2161.7851      2.3186802e+09  0.23056785     0.5            3007200        2.466445       1776.8301      3553.9129      128.72754    
   6014450   323.72061      1.1304882     -3981983.2      963.98469     -3981019.2      1323.4367      1323.4367      1323.4367      838.28165      2161.7183      838.28165      2161.7183      838.28165      2161.7183      2.3179791e+09  0.23063759     0.5            3007225        2.480808       1740.7046      3481.1669      128.77898    
   6014500   323.71912      1.0929175     -3982057.6      963.98025     -3981093.6      1323.4229      1323.4229      1323.4229      838.28855      2161.7115      838.28855      2161.7115      838.28855      2161.7115      2.3179067e+09  0.2306448      0.5            3007250        2.492569       2125.4889      4251.3392      128.69538    
   6014550   323.65811      0.85992308    -3982138.3      963.79859     -3981174.5      1323.4978      1323.4978      1323.4978      838.25108      2161.7489      838.25108      2161.7489      838.25108      2161.7489      2.3183004e+09  0.23060563     0.5            3007275        2.504182       2152.7598      4305.5197      128.60493    
   6014600   323.65146      0.92483194    -3982209.3      963.77877     -3981245.6      1323.4379      1323.4379      1323.4379      838.28106      2161.7189      838.28106      2161.7189      838.28106      2161.7189      2.3179853e+09  0.23063697     0.5            3007300        2.516967       1955.4165      3910.5271      128.57517    
   6014650   323.68926      1.1570009     -3982274.2      963.89136     -3981310.3      1323.3031      1323.3031      1323.3031      838.34846      2161.6515      838.34846      2161.6515      838.34846      2161.6515      2.3172771e+09  0.23070746     0.5            3007325        2.530978       1784.3123      3568.8794      128.60788    
   6014700   323.65044      1.0389357     -3982351.6      963.77575     -3981387.8      1323.3263      1323.3263      1323.3263      838.33684      2161.6632      838.33684      2161.6632      838.33684      2161.6632      2.3173992e+09  0.2306953      0.5            3007350        2.54222        2223.8036      4447.2116      128.5002     
   6014750   323.57416      0.82964078    -3982431.1      963.54859     -3981467.6      1323.3906      1323.3906      1323.3906      838.30469      2161.6953      838.30469      2161.6953      838.30469      2161.6953      2.317737e+09   0.23066168     0.5            3007375        2.553971       2127.4785      4254.957       128.41905    
   6014800   323.57959      1.0109319     -3982498.5      963.56477     -3981534.9      1323.2795      1323.2795      1323.2795      838.36023      2161.6398      838.36023      2161.6398      838.36023      2161.6398      2.3171535e+09  0.23071977     0.5            3007400        2.566092       2062.5361      4125.0722      128.35707    
   6014850   323.59242      1.1703424     -3982565.6      963.60298     -3981602        1323.1785      1323.1785      1323.1785      838.41077      2161.5892      838.41077      2161.5892      838.41077      2161.5892      2.3166225e+09  0.23077265     0.5            3007425        2.580758       1704.6229      3409.4783      128.42229    
   6014900   323.51397      0.93570925    -3982646.8      963.36936     -3981683.4      1323.2542      1323.2542      1323.2542      838.37288      2161.6271      838.37288      2161.6271      838.37288      2161.6271      2.3170205e+09  0.23073301     0.5            3007450        2.592321       2162.2557      4324.1373      128.33308    
   6014950   323.45275      0.84546437    -3982722.4      963.18705     -3981759.2      1323.2652      1323.2652      1323.2652      838.36738      2161.6326      838.36738      2161.6326      838.36738      2161.6326      2.3170783e+09  0.23072725     0.5            3007475        2.603931       2153.3161      4306.6322      128.24697    
   6015000   323.39255      1.1102453     -3982786.4      963.00778     -3981823.4      1323.1166      1323.1166      1323.1166      838.44169      2161.5583      838.44169      2161.5583      838.44169      2161.5583      2.3162977e+09  0.23080501     0.5            3007500        2.618346       1734.1842      3468.6091      128.29905    
   6015050   323.38563      1.1297999     -3982858.4      962.98717     -3981895.4      1323.078       1323.078       1323.078       838.46101      2161.539       838.46101      2161.539       838.46101      2161.539       2.3160948e+09  0.23082523     0.5            3007525        2.631505       1899.9848      3799.6808      128.28919    
   6015100   323.31521      0.85848034    -3982940.3      962.77747     -3981977.5      1323.1704      1323.1704      1323.1704      838.41479      2161.5852      838.41479      2161.5852      838.41479      2161.5852      2.3165803e+09  0.23077685     0.5            3007550        2.642696       2233.7384      4467.4768      128.18394    
   6015150   323.30226      0.89092437    -3983012        962.73892     -3982049.2      1323.1257      1323.1257      1323.1257      838.43713      2161.5629      838.43713      2161.5629      838.43713      2161.5629      2.3163456e+09  0.23080024     0.5            3007575        2.654116       2189.3336      4378.6671      128.09061    
   6015200   323.35324      1.1575799     -3983075.3      962.89072     -3982112.4      1322.9743      1322.9743      1322.9743      838.51287      2161.4871      838.51287      2161.4871      838.51287      2161.4871      2.3155502e+09  0.23087952     0.5            3007600        2.667674       1843.9298      3687.8596      128.10076    
   6015250   323.34297      1.1045139     -3983150        962.86016     -3982187.1      1322.9675      1322.9675      1322.9675      838.51624      2161.4838      838.51624      2161.4838      838.51624      2161.4838      2.3155148e+09  0.23088305     0.5            3007625        2.679822       2057.9519      4115.9039      128.0433     
   6015300   323.27543      0.83881272    -3983231.4      962.65902     -3982268.7      1323.0577      1323.0577      1323.0577      838.47115      2161.5288      838.47115      2161.5288      838.47115      2161.5288      2.3159882e+09  0.23083585     0.5            3007650        2.690966       2243.1584      4486.7193      127.93855    
   6015350   323.27093      0.88164717    -3983302.7      962.64563     -3982340        1323.0071      1323.0071      1323.0071      838.49643      2161.5036      838.49643      2161.5036      838.49643      2161.5036      2.3157228e+09  0.23086231     0.5            3007675        2.702382       2189.9089      4379.4342      127.84757    
   6015400   323.33179      1.1538275     -3983365.8      962.82687     -3982402.9      1322.8512      1322.8512      1322.8512      838.57439      2161.4256      838.57439      2161.4256      838.57439      2161.4256      2.3149041e+09  0.23094396     0.5            3007700        2.715647       1884.6589      3769.3178      127.8444     
   6015450   323.34138      1.1458827     -3983438.7      962.85541     -3982475.8      1322.8234      1322.8234      1322.8234      838.58829      2161.4117      838.58829      2161.4117      838.58829      2161.4117      2.3147582e+09  0.23095852     0.5            3007725        2.732166       1513.5004      3027.0008      127.99357    
   6015500   323.28096      0.86607162    -3983520.9      962.67548     -3982558.2      1322.9205      1322.9205      1322.9205      838.53973      2161.4603      838.53973      2161.4603      838.53973      2161.4603      2.315268e+09   0.23090766     0.5            3007750        2.743752       2157.7766      4315.5533      127.9112     
   6015550   323.26208      0.81908325    -3983594.8      962.61928     -3982632.2      1322.9107      1322.9107      1322.9107      838.54463      2161.4554      838.54463      2161.4554      838.54463      2161.4554      2.3152166e+09  0.23091278     0.5            3007775        2.755198       2183.9783      4367.9567      127.823      
   6015600   323.3252       1.0993654     -3983658.2      962.80722     -3982695.3      1322.7505      1322.7505      1322.7505      838.62475      2161.3752      838.62475      2161.3752      838.62475      2161.3752      2.3143754e+09  0.23099672     0.5            3007800        2.767831       1978.944       3958.2014      127.79033    
   6015650   323.36495      1.2154324     -3983726.1      962.9256      -3982763.1      1322.6656      1322.6656      1322.6656      838.66719      2161.3328      838.66719      2161.3328      838.66719      2161.3328      2.3139299e+09  0.23104119     0.5            3007825        2.781221       1867.2044      3734.1299      127.79263    
   6015700   323.31271      0.9502274     -3983808.6      962.77003     -3982845.8      1322.7567      1322.7567      1322.7567      838.62167      2161.3783      838.62167      2161.3783      838.62167      2161.3783      2.3144078e+09  0.23099348     0.5            3007850        2.794609       1867.3439      3734.6878      127.79469    
   6015750   323.25951      0.75624121    -3983886.8      962.61161     -3982924.2      1322.8148      1322.8148      1322.8148      838.59262      2161.4074      838.59262      2161.4074      838.59262      2161.4074      2.3147127e+09  0.23096305     0.5            3007875        2.808538       1794.6877      3589.3754      127.82127    
   6015800   323.29997      0.98078928    -3983952.7      962.7321      -3982990        1322.6804      1322.6804      1322.6804      838.65982      2161.3402      838.65982      2161.3402      838.65982      2161.3402      2.3140073e+09  0.23103346     0.5            3007900        2.820106       2161.321       4322.642       127.74045    
   6015850   323.36735      1.2524692     -3984014.7      962.93274     -3983051.7      1322.5228      1322.5228      1322.5228      838.73862      2161.2614      838.73862      2161.2614      838.73862      2161.2614      2.3131801e+09  0.23111607     0.5            3007925        2.833376       1883.8068      3767.6136      127.73704    
   6015900   323.36617      1.1552444     -3985985.2      962.92923     -3985022.2      1322.5251      1322.5251      1322.5251      838.73745      2161.2625      838.73745      2161.2625      838.73745      2161.2625      2.3131924e+09  0.23111484     0.5            3007950        2.84769        1746.5418      3493.0837      127.78043    
   6015950   323.33763      0.98428703    -3984170.2      962.84425     -3983207.4      1322.5847      1322.5847      1322.5847      838.70765      2161.2924      838.70765      2161.2924      838.70765      2161.2924      2.3135052e+09  0.2310836      0.5            3007975        2.8614         1823.4865      3647.239       127.79622    
   6016000   323.2206       0.79385628    -3984248.6      962.49576     -3983286.1      1322.6419      1322.6419      1322.6419      838.67906      2161.3209      838.67906      2161.3209      838.67906      2161.3209      2.3138053e+09  0.23105363     0.5            3008000        2.872597       2232.9403      4465.4818      127.70008    
   6016050   323.22381      0.71773811    -3986217.4      962.50531     -3985254.9      1322.6347      1322.6347      1322.6347      838.68266      2161.3173      838.68266      2161.3173      838.68266      2161.3173      2.3137675e+09  0.2310574      0.5            3008025        2.886004       1864.5585      3729.3951      127.7025     
[...]
   6502350   326.13922      0.52324011    -7280556.4      971.18691     -7279585.3      1091.4784      1091.4784      1091.4784      954.26079      2045.7392      954.26079      2045.7392      954.26079      2045.7392      1.3003057e+09  0.41114419     0.5            3251175        144.46125      1902.0085      3804.017       0.7697242    
   6502400   326.20049      1.5977142     -7282897.4      971.36935     -7281926.1      1091.3463      1091.3463      1091.3463      954.32686      2045.6731      954.32686      2045.6731      954.32686      2045.6731      1.2998335e+09  0.41129354     0.5            3251200        144.47495      1824.6843      3649.3687      0.7551968    
   6502450   326.11969      0.34717205    -7281093.4      971.12876     -7280122.3      1091.4634      1091.4634      1091.4634      954.26832      2045.7317      954.26832      2045.7317      954.26832      2045.7317      1.3002519e+09  0.41116119     0.5            3251225        144.48994      1668.8919      3337.7837      0.74067613   
   6502500   326.18876      1.3952962     -7283067.3      971.33444     -7282096        1091.3369      1091.3369      1091.3369      954.33153      2045.6685      954.33153      2045.6685      954.33153      2045.6685      1.2998001e+09  0.41130411     0.5            3251250        144.50255      1982.082       3964.164       0.72614346   
   6502550   326.17484      1.3830276     -7283151.5      971.29296     -7282180.2      1091.323       1091.323       1091.323       954.3385       2045.6615      954.3385       2045.6615      954.3385       2045.6615      1.2997503e+09  0.41131985     0.5            3251275        144.51655      1785.2042      3570.4085      0.71161804   
   6502600   326.10808      0.32515079    -7283240.5      971.09417     -7282269.4      1091.4163      1091.4163      1091.4163      954.29187      2045.7081      954.29187      2045.7081      954.29187      2045.7081      1.3000835e+09  0.41121443     0.5            3251300        144.53037      1809.4962      3619.2544      0.69709181   
   6502650   326.15725      1.1385164     -7283321.3      971.2406      -7282350        1091.3176      1091.3176      1091.3176      954.34119      2045.6588      954.34119      2045.6588      954.34119      2045.6588      1.2997311e+09  0.41132594     0.5            3251325        144.54262      2040.8163      4081.2995      0.68255833   
   6502700   326.16328      1.5245529     -7283402.5      971.25855     -7282431.2      1091.2621      1091.2621      1091.2621      954.36896      2045.631       954.36896      2045.631       954.36896      2045.631       1.2995326e+09  0.41138875     0.5            3251350        144.55915      1512.1273      3024.4375      0.66804511   
   6502750   326.08673      0.40207791    -7283492.4      971.0306      -7282521.4      1091.3627      1091.3627      1091.3627      954.31865      2045.6814      954.31865      2045.6814      954.31865      2045.6814      1.2998922e+09  0.41127497     0.5            3251375        144.57577      1504.5739      3008.9667      0.65353185   
   6502800   326.14283      1.2815229     -7283572.3      971.19765     -7282601.1      1091.2561      1091.2561      1091.2561      954.37193      2045.6281      954.37193      2045.6281      954.37193      2045.6281      1.2995114e+09  0.41139547     0.5            3251400        144.59303      1448.3518      2896.8714      0.63902102   
   6502850   326.11669      1.1237672     -7283657.3      971.11982     -7282686.2      1091.2569      1091.2569      1091.2569      954.37157      2045.6284      954.37157      2045.6284      954.37157      2045.6284      1.299514e+09   0.41139465     0.5            3251425        144.60666      1834.1893      3668.3786      0.62449396   
   6502900   326.09162      0.61001633    -7283743.7      971.04515     -7282772.7      1091.2946      1091.2946      1091.2946      954.35271      2045.6473      954.35271      2045.6473      954.35271      2045.6473      1.2996488e+09  0.41135199     0.5            3251450        144.61943      1957.8667      3915.4268      0.60996344   
   6502950   326.14548      1.6005223     -7284189.9      971.20554     -7283218.7      1091.1714      1091.1714      1091.1714      954.41429      2045.5857      954.41429      2045.5857      954.41429      2045.5857      1.2992088e+09  0.4114913      0.5            3251475        144.6331       1827.7526      3655.7725      0.59543703   
   6503000   325.91846      0.36961786    -7283912.2      970.52953     -7282941.7      1091.288       1091.288       1091.288       954.35602      2045.644       954.35602      2045.644       954.35602      2045.644       1.2996251e+09  0.41135949     0.5            3251500        144.64894      1578.4821      3156.7649      0.58091946   
   6503050   326.01732      1.5637833     -7284358        970.8239      -7283387.1      1091.1426      1091.1426      1091.1426      954.4287       2045.5713      954.4287       2045.5713      954.4287       2045.5713      1.2991059e+09  0.4115239      0.5            3251525        144.66312      1763.2952      3526.8392      0.56639512   
   6503100   325.99574      0.74329831    -7284447.2      970.75965     -7283476.4      1091.2132      1091.2132      1091.2132      954.39338      2045.6066      954.39338      2045.6066      954.39338      2045.6066      1.2993581e+09  0.411444       0.5            3251550        144.67881      1593.7779      3187.5558      0.5518766    
   6503150   326.04841      0.84202824    -7284530.6      970.9165      -7283559.7      1091.1863      1091.1863      1091.1863      954.40685      2045.5931      954.40685      2045.5931      954.40685      2045.5931      1.2992619e+09  0.41147447     0.5            3251575        144.69442      1600.9221      3201.6392      0.5373576    
   6503200   326.10897      1.4765369     -7284610.3      971.09682     -7283639.2      1091.1019      1091.1019      1091.1019      954.44907      2045.5509      954.44907      2045.5509      954.44907      2045.5509      1.2989603e+09  0.41157001     0.5            3251600        144.71054      1551.0609      3102.3143      0.52284018   
   6503250   326.07005      0.40503766    -7284699.9      970.98094     -7283728.9      1091.1993      1091.1993      1091.1993      954.40033      2045.5997      954.40033      2045.5997      954.40033      2045.5997      1.2993085e+09  0.41145971     0.5            3251625        144.72452      1788.0132      3575.7706      0.50831494   
   6503300   326.16659      1.5022545     -7284777.9      971.2684      -7283806.7      1091.0652      1091.0652      1091.0652      954.4674       2045.5326      954.4674       2045.5326      954.4674       2045.5326      1.2988294e+09  0.41161149     0.5            3251650        144.73757      1916.0025      3832.0049      0.49378662   
   6503350   326.13207      0.73538061    -7284866.7      971.16561     -7283895.6      1091.1305      1091.1305      1091.1305      954.43476      2045.5652      954.43476      2045.5652      954.43476      2045.5652      1.2990626e+09  0.41153762     0.5            3251675        144.74978      2048.0052      4096.0105      0.47925581   
   6503400   326.18053      0.96905528    -7284949.6      971.30992     -7283978.3      1091.0885      1091.0885      1091.0885      954.45577      2045.5442      954.45577      2045.5442      954.45577      2045.5442      1.2989124e+09  0.41158518     0.5            3251700        144.76359      1810.4135      3620.827       0.46473062   
   6503450   326.21436      1.3059326     -7285031.4      971.41065     -7284060        1091.0352      1091.0352      1091.0352      954.48242      2045.5176      954.48242      2045.5176      954.48242      2045.5176      1.2987221e+09  0.4116455      0.5            3251725        144.77688      1880.1233      3760.2467      0.45020398   
   6503500   326.19287      0.51056714    -7285119.5      971.34667     -7284148.2      1091.1034      1091.1034      1091.1034      954.44828      2045.5517      954.44828      2045.5517      954.44828      2045.5517      1.298966e+09   0.41156822     0.5            3251750        144.78925      2020.6919      4041.3838      0.4356748    
   6503550   326.27879      1.5429988     -7285197.7      971.60252     -7284226.1      1090.9754      1090.9754      1090.9754      954.51229      2045.4877      954.51229      2045.4877      954.51229      2045.4877      1.2985088e+09  0.41171312     0.5            3251775        144.80276      1850.7551      3701.7843      0.42114935   
   6503600   326.23229      0.53762591    -7285287.6      971.46406     -7284316.1      1091.0664      1091.0664      1091.0664      954.46679      2045.5332      954.46679      2045.5332      954.46679      2045.5332      1.2988338e+09  0.41161011     0.5            3251800        144.81647      1824.1518      3648.3035      0.40662467   
   6503650   326.30665      1.2657242     -7285368.1      971.68549     -7284396.4      1090.9713      1090.9713      1090.9713      954.51436      2045.4856      954.51436      2045.4856      954.51436      2045.4856      1.298494e+09   0.41171781     0.5            3251825        144.82971      1888.5028      3776.7203      0.39209889   
   6503700   326.29857      0.99509901    -7285454        971.66143     -7284482.3      1090.9834      1090.9834      1090.9834      954.50831      2045.4917      954.50831      2045.4917      954.50831      2045.4917      1.2985372e+09  0.41170412     0.5            3251850        144.84567      1565.9255      3131.8509      0.37758046   
   6503750   326.31125      0.75172644    -7285539.3      971.69918     -7284567.6      1090.9925      1090.9925      1090.9925      954.50376      2045.4962      954.50376      2045.4962      954.50376      2045.4962      1.2985697e+09  0.41169381     0.5            3251875        144.86142      1587.604       3175.208       0.3630612    
   6503800   326.36607      1.4329324     -7285619.4      971.86242     -7284647.6      1090.9023      1090.9023      1090.9023      954.54886      2045.4511      954.54886      2045.4511      954.54886      2045.4511      1.2982476e+09  0.41179594     0.5            3251900        144.87505      1834.5931      3669.1862      0.3485366    
   6503850   326.32711      0.49603601    -7285708.7      971.74641     -7284736.9      1090.9858      1090.9858      1090.9858      954.50709      2045.4929      954.50709      2045.4929      954.50709      2045.4929      1.298546e+09   0.41170134     0.5            3251925        144.88718      2059.3081      4118.9554      0.33400875   
   6503900   326.4091       1.4439905     -7285787.9      971.99056     -7284815.9      1090.8671      1090.8671      1090.8671      954.56647      2045.4335      954.56647      2045.4335      954.56647      2045.4335      1.2981219e+09  0.41183584     0.5            3251950        144.90086      1828.5547      3657.1094      0.31948476   
   6503950   326.37605      0.72639859    -7285876.5      971.89215     -7284904.6      1090.9271      1090.9271      1090.9271      954.53643      2045.4636      954.53643      2045.4636      954.53643      2045.4636      1.2983364e+09  0.41176779     0.5            3251975        144.91717      1532.5201      3064.8523      0.30496649   
   6504000   326.24412      1.0341235     -7285959.3      971.49929     -7284987.8      1090.8772      1090.8772      1090.8772      954.5614       2045.4386      954.5614       2045.4386      954.5614       2045.4386      1.2981581e+09  0.41182434     0.5            3252000        144.93165      1726.1617      3452.3234      0.2904442    
   6504050   326.28542      1.2159798     -7286042.5      971.62226     -7285070.9      1090.8408      1090.8408      1090.8408      954.57958      2045.4204      954.57958      2045.4204      954.57958      2045.4204      1.2980283e+09  0.41186552     0.5            3252025        144.94516      1850.4811      3700.9623      0.27592006   
   6504100   326.3088       0.59593992    -7286129.9      971.69188     -7285158.2      1090.8904      1090.8904      1090.8904      954.5548       2045.4452      954.5548       2045.4452      954.5548       2045.4452      1.2982052e+09  0.41180939     0.5            3252050        144.95935      1761.8041      3523.6082      0.26139736   
   6504150   326.40982      1.4696742     -7286209.3      971.99271     -7285237.3      1090.7803      1090.7803      1090.7803      954.60984      2045.3902      954.60984      2045.3902      954.60984      2045.3902      1.2978123e+09  0.41193409     0.5            3252075        144.97232      1928.4172      3856.8343      0.24687263   
   6504200   326.38766      0.61589984    -7286298.6      971.92673     -7285326.7      1090.855       1090.855       1090.855       954.5725       2045.4275      954.5725       2045.4275      954.5725       2045.4275      1.2980789e+09  0.41184949     0.5            3252100        144.98882      1515.2433      3030.6704      0.23235388   
   6504250   326.4534       1.1617222     -7286380.4      972.12247     -7285408.2      1090.7805      1090.7805      1090.7805      954.60976      2045.3902      954.60976      2045.3902      954.60976      2045.3902      1.2978129e+09  0.4119339      0.5            3252125        145.00118      2022.6537      4044.9802      0.21782851   
   6504300   326.4577       1.1261925     -7286465        972.13528     -7285492.9      1090.7681      1090.7681      1090.7681      954.61596      2045.384       954.61596      2045.384       954.61596      2045.384       1.2977686e+09  0.41194795     0.5            3252150        145.01529      1771.1654      3542.5818      0.20330604   
   6504350   326.43984      0.6346028     -7286551.8      972.08209     -7285579.8      1090.8042      1090.8042      1090.8042      954.59791      2045.4021      954.59791      2045.4021      954.59791      2045.4021      1.2978975e+09  0.41190705     0.5            3252175        145.03132      1560.0624      3119.9301      0.18878614   
   6504400   326.48868      1.4465487     -7286631.7      972.22753     -7285659.5      1090.7022      1090.7022      1090.7022      954.64891      2045.3511      954.64891      2045.3511      954.64891      2045.3511      1.2975334e+09  0.41202263     0.5            3252200        145.04614      1685.9995      3371.9989      0.17426449   
   6504450   326.42984      0.68043777    -7286720.6      972.05234     -7285748.5      1090.7676      1090.7676      1090.7676      954.61621      2045.3838      954.61621      2045.3838      954.61621      2045.3838      1.2977668e+09  0.41194851     0.5            3252225        145.06278      1502.8554      3005.7109      0.15974478   
   6504500   326.44598      1.0320194     -7286803.4      972.1004      -7285831.3      1090.7148      1090.7148      1090.7148      954.64258      2045.3574      954.64258      2045.3574      954.64258      2045.3574      1.2975786e+09  0.41200828     0.5            3252250        145.07928      1514.9679      3029.9358      0.14522451   
   6504550   326.43622      1.2742294     -7286886.3      972.07133     -7285914.2      1090.6738      1090.6738      1090.6738      954.66311      2045.3369      954.66311      2045.3369      954.66311      2045.3369      1.297432e+09   0.41205481     0.5            3252275        145.09596      1498.8908      2997.7816      0.130704     
   6504600   326.3729       0.57099783    -7286974.2      971.88276     -7286002.3      1090.7325      1090.7325      1090.7325      954.63376      2045.3662      954.63376      2045.3662      954.63376      2045.3662      1.2976416e+09  0.41198828     0.5            3252300        145.10923      1883.8068      3767.6136      0.11618033   
   6504650   326.39685      1.3341495     -7287054.6      971.95408     -7286082.7      1090.6369      1090.6369      1090.6369      954.68155      2045.3184      954.68155      2045.3184      954.68155      2045.3184      1.2973004e+09  0.41209662     0.5            3252325        145.1215       2036.9918      4073.6516      0.10165622   
   6504700   326.338        0.96242627    -7287141.3      971.77885     -7286169.5      1090.6609      1090.6609      1090.6609      954.66957      2045.3304      954.66957      2045.3304      954.66957      2045.3304      1.2973859e+09  0.41206946     0.5            3252350        145.13684      1629.9387      3260.09        0.087134388  
   6504750   326.29727      0.71917716    -7287226.6      971.65755     -7286255        1090.6713      1090.6713      1090.6713      954.66437      2045.3356      954.66437      2045.3356      954.66437      2045.3356      1.297423e+09   0.41205767     0.5            3252375        145.15038      1846.2447      3692.4895      0.072611499  
   6504800   326.3042       1.4160929     -7287306.9      971.67818     -7286335.2      1090.5831      1090.5831      1090.5831      954.70847      2045.2915      954.70847      2045.2915      954.70847      2045.2915      1.2971083e+09  0.41215765     0.5            3252400        145.1661       1590.938       3181.876       0.058089676  
   6504850   326.22212      0.72421265    -7287395.1      971.43378     -7286423.6      1090.6407      1090.6407      1090.6407      954.67966      2045.3203      954.67966      2045.3203      954.67966      2045.3203      1.2973139e+09  0.41209233     0.5            3252425        145.18266      1509.3884      3018.9591      0.043567869  
   6504900   326.20571      0.95192417    -7287478.2      971.3849      -7286506.8      1090.6019      1090.6019      1090.6019      954.69907      2045.3009      954.69907      2045.3009      954.69907      2045.3009      1.2971754e+09  0.41213633     0.5            3252450        145.19709      1732.5017      3464.7634      0.029045228  
   6504950   326.18703      1.3349404     -7287560        971.32926     -7286588.7      1090.5467      1090.5467      1090.5467      954.72663      2045.2734      954.72663      2045.2734      954.72663      2045.2734      1.2969787e+09  0.41219883     0.5            3252475        145.21291      1580.2781      3160.7561      0.014522743  
   6505000   325.91437      0.61072847    -7287647.8      970.51734     -7286677.3      1090.6077      1090.6077      1090.6077      954.69617      2045.3038      954.69617      2045.3038      954.69617      2045.3038      1.2971961e+09  0.41212976     0.5            3252500        145.22941      1515.3352      3030.6704      0            
Loop time of 145.23 on 1 procs for 500000 steps with 1000 atoms

Performance: 148.730 ns/day, 0.161 hours/ns, 3442.816 timesteps/s
76.7% CPU use with 1 MPI tasks x 1 OpenMP threads

MPI task timing breakdown:
Section |  min time  |  avg time  |  max time  |%varavg| %total
---------------------------------------------------------------
Pair    | 22.189     | 22.189     | 22.189     |   0.0 | 15.28
Neigh   | 0.12569    | 0.12569    | 0.12569    |   0.0 |  0.09
Comm    | 1.8349     | 1.8349     | 1.8349     |   0.0 |  1.26
Output  | 81.607     | 81.607     | 81.607     |   0.0 | 56.19
Modify  | 37.361     | 37.361     | 37.361     |   0.0 | 25.73
Other   |            | 2.112      |            |       |  1.45

Nlocal:           1000 ave        1000 max        1000 min
Histogram: 1 0 0 0 0 0 0 0 0 0
Nghost:            770 ave         770 max         770 min
Histogram: 1 0 0 0 0 0 0 0 0 0
Neighs:           1535 ave        1535 max        1535 min
Histogram: 1 0 0 0 0 0 0 0 0 0

Total # of neighbors = 1535
Ave neighs/atom = 1.535
Neighbor list builds = 401
Dangerous builds = 0

# run_style
run_style verlet

# write restart
write_restart ${write_res}
write_restart equpmf1.15.res
System init for write_restart ...
  generated 0 of 1 mixed pair_coeff terms from geometric mixing rule

Total wall time: 0:02:25
