ITEM: TIMESTEP
0
ITEM: NUMBER OF ATOMS
1000
ITEM: BOX BOUNDS pp pp pp
-1.0000000000000000e+02 4.1000000000000000e+03
-1.0000000000000000e+02 4.1000000000000000e+03
-1.0000000000000000e+02 4.1000000000000000e+03
ITEM: ATOMS type x y z ix iy iz
1 247.233 210.636 154.466 0 0 0
1 571.717 248.017 333.729 0 0 0
1 47.823 308.475 348.747 0 0 0
1 575.388 335.332 908.929 0 0 0
1 81.449 209.093 777.64 0 0 0
1 561.109 55.062 748.309 0 0 0
1 419.417 407.71 547.967 0 0 0
1 798.689 0.187 765.842 0 0 0
1 576.24 165.305 542.014 0 0 0
1 238.1 245.539 535.532 0 0 0
1 168.459 336.159 197.248 0 0 0
1 397.94 255.363 762.483 0 0 0
1 711.302 329.713 786.093 0 0 0
1 2000 92.475 226.005 0 0 0
1 2000 352.847 1574.09 0 0 0
1 2099.97 378.073 0.467 0 0 0
1 2000 463.472 106.41 0 0 0
1 2000.51 261.365 53.383 0 0 0
1 2739.88 86.299 195.878 0 0 0
1 2000 1089.09 260.183 0 0 0
1 2010.92 246.677 178.4 0 0 0
1 2000 0 1198.47 0 0 0
1 2000 528.185 379.498 0 0 0
1 2000 689.974 313.357 0 0 0
1 2000 708.246 815.932 0 0 0
1 31.951 2133.59 880.539 0 0 0
1 526.692 2252.37 581.229 0 0 0
1 314.607 2250.21 159.202 0 0 0
1 416.296 2141.33 696.731 0 0 0
1 385.892 2285.91 806.579 0 0 0
1 284.015 2204.06 594.69 0 0 0
1 392.471 2223.23 381.212 0 0 0
1 850.932 2691.33 0.669 0 0 0
1 559.358 2191.17 249.785 0 0 0
1 0.014 2017.81 482.165 0 0 0
1 586.714 2167.53 944.582 0 0 0
1 605.346 2319.03 439.869 0 0 0
1 519.02 2259.3 109.311 0 0 0
1 778.916 235.528 2000 0 0 0
1 0 937.121 2000 0 0 0
1 1119.96 417.506 2000 0 0 0
1 867.348 1123.1 2000 0 0 0
1 663.954 1244.39 2000 0 0 0
1 450.299 89.349 2000 0 0 0
1 183.068 0.003 2000.49 0 0 0
1 226.297 759.951 2000 0 0 0
1 197.784 912.047 2000 0 0 0
1 0 574.844 2000 0 0 0
1 303.643 277.438 2000 0 0 0
1 925.348 367.561 2000 0 0 0
1 3315.09 3317.81 146.904 0 0 0
1 3487.2 3704.21 385.586 0 0 0
1 3731.95 3942.65 625.703 0 0 0
1 3335.13 3721.68 83.716 0 0 0
1 3511.53 3320.05 347.011 0 0 0
1 3582.88 3287.64 550.143 0 0 0
1 3565.94 3212.44 296.809 0 0 0
1 3388.83 3451.51 543.645 0 0 0
1 3232.48 3124.87 61.587 0 0 0
1 3147.25 3222.1 98.868 0 0 0
1 3343.37 3650.53 596.444 0 0 0
1 3775.51 3842.77 690.581 0 0 0
1 3921.72 3265.01 320.167 0 0 0
1 2844.54 956.717 2722.96 0 0 0
1 3148.48 277.646 3128.91 0 0 0
1 3303.18 0.038 3033.8 0 0 0
1 3038.8 177.16 3482.3 0 0 0
1 3373.64 215.478 3189.45 0 0 0
1 2841.76 300.827 3456.9 0 0 0
1 3124.78 885.935 3491.43 0 0 0
1 3169.15 501.319 3217.97 0 0 0
1 3243.97 147.742 3242.42 0 0 0
1 3384.5 622.634 3313.53 0 0 0
1 3380.11 697.28 3020.4 0 0 0
1 3251.45 817.066 3426.05 0 0 0
1 16.856 2443.57 2855.26 0 0 0
1 773.668 2207.93 2234.68 0 0 0
1 1058.87 2259.8 2174.05 0 0 0
1 535.882 2016 2034.65 0 0 0
1 881.392 2062.75 2008.29 0 0 0
1 134.387 2186.9 2018.62 0 0 0
1 151.691 2009.38 2003.92 0 0 0
1 1139.84 2001.55 2003.06 0 0 0
1 313.107 2081.78 2242.62 0 0 0
1 546.444 2398.11 2003.6 0 0 0
1 252.89 2120.8 2054.33 0 0 0
1 60.147 2295.61 2102.63 0 0 0
1 984.796 2000.05 2004.11 0 0 0
1 2000.17 2183.26 2000.11 0 0 0
1 2183.96 2097.89 2721.82 0 0 0
1 2001.47 2203.8 2614.85 0 0 0
1 3210.01 2000.73 2849.86 0 0 0
1 2438.27 2815.63 2001.03 0 0 0
1 2192.58 2000.12 2000.2 0 0 0
1 2000.21 2000.11 2739.15 0 0 0
1 2948.95 2594.03 2352.92 0 0 0
1 2470.99 2000.27 2000.78 0 0 0
1 3444.24 3108 2044.05 0 0 0
1 3157.32 2672.18 2075.84 0 0 0
1 2000.27 2000.2 2155.87 0 0 0
2 114.972 421.037 33.975 0 0 0
2 590.851 0.751 985.178 0 0 0
2 4.357 1975.78 928.45 0 0 0
2 287.289 503.922 622.955 0 0 0
2 622.353 376.311 612.566 0 0 0
2 260.421 386.889 1.763 0 0 0
2 722.027 484.468 214.762 0 0 0
2 665.569 893.467 297.941 0 0 0
2 0.081 842.374 0.178 0 0 0
2 765.416 166.994 79.444 0 0 0
2 171.018 61.295 699.718 0 0 0
2 0.089 206.263 677.64 0 0 0
2 273.97 971.662 236.881 0 0 0
2 974.385 350.218 955.866 0 0 0
2 0.075 1240.2 318.792 0 0 0
2 1518.84 695.499 704.479 0 0 0
2 108.403 0.866 0.021 0 0 0
2 591.755 364.707 160.403 0 0 0
2 511.249 972.771 1.109 0 0 0
2 511.123 310.228 666.226 0 0 0
2 19.262 1979.27 118.452 0 0 0
2 30.27 99.943 627.7 0 0 0
2 303.646 367.827 308.377 0 0 0
2 649.73 515.154 372.962 0 0 0
2 1158.64 1854.64 47.987 0 0 0
2 0.419 1842.97 1983.34 0 0 0
2 543.62 814.717 394.092 0 0 0
2 18.863 560.847 16.113 0 0 0
2 1508.78 411.818 607.617 0 0 0
2 191.624 402.079 817.289 0 0 0
2 1209.72 5.655 25.246 0 0 0
2 329.61 618.98 63.257 0 0 0
2 116.533 13.106 304.572 0 0 0
2 673.083 262.543 182.498 0 0 0
2 1375.4 244.956 671.126 0 0 0
2 468.5 668.926 646.107 0 0 0
2 1988.6 19.076 1808.09 0 0 0
2 97.902 888.541 92.249 0 0 0
2 729.7 1998.35 1999.45 0 0 0
2 578.631 295.528 768.354 0 0 0
2 107.781 1944.53 16.226 0 0 0
2 246.301 0.038 0.043 0 0 0
2 959.723 802.691 868.099 0 0 0
2 935.991 340.521 813.147 0 0 0
2 1997.73 10.165 1991.07 0 0 0
2 602.686 1398.29 56.781 0 0 0
2 422.27 175.645 427.047 0 0 0
2 920.42 561.092 582.307 0 0 0
2 0.214 0.022 1538.14 0 0 0
2 918.913 304.105 464.139 0 0 0
2 375.669 467.033 438.646 0 0 0
2 656.008 810.488 908.026 0 0 0
2 1314.09 666.592 0.961 0 0 0
2 829.363 178.174 301.101 0 0 0
2 183.483 771.163 16.01 0 0 0
2 0.948 0.338 1101.62 0 0 0
2 601.887 8.895 289.324 0 0 0
2 1520.24 1271.3 0.298 0 0 0
2 6.992 7.387 1878.21 0 0 0
2 327.361 993.144 891.471 0 0 0
2 1.482 2000 0.001 0 0 0
2 0.342 1324.53 0.242 0 0 0
2 465.224 84.528 966.224 0 0 0
2 319.14 113.089 198.286 0 0 0
2 732.468 42.478 583.675 0 0 0
2 1999.79 39.064 0.205 0 0 0
2 998.879 997.682 885.47 0 0 0
2 0.432 0.081 690.237 0 0 0
2 189.575 0.805 802.883 0 0 0
2 1994.53 13.984 858.083 0 0 0
2 260.145 884.405 147.68 0 0 0
2 0.005 402.859 67.038 0 0 0
2 447.845 98.028 714.285 0 0 0
2 801.738 972.847 29.162 0 0 0
2 3.334 28.966 1219.69 0 0 0
2 143.067 768.704 735.978 0 0 0
2 592.478 1232.81 0.452 0 0 0
2 168.59 488.834 953.414 0 0 0
2 464.345 789.773 499.79 0 0 0
2 322.096 419.971 804.139 0 0 0
2 863.095 195.51 696.631 0 0 0
2 98.131 814.687 943.994 0 0 0
2 668.819 425.712 851.784 0 0 0
2 150.665 525.183 89.512 0 0 0
2 494.343 43.924 354.885 0 0 0
2 158.442 348.781 398.844 0 0 0
2 993.345 1627.65 513.524 0 0 0
2 1998.05 1999.83 24.151 0 0 0
2 314.089 750.494 475.22 0 0 0
2 0.327 359.057 611.862 0 0 0
2 533.395 437.461 455.776 0 0 0
2 906 165.616 94.119 0 0 0
2 1.775 121.328 1100.35 0 0 0
2 1529.92 498.31 2.264 0 0 0
2 1983.12 1223.86 1985.22 0 0 0
2 377.356 130.827 22.907 0 0 0
2 834.152 86.881 632.455 0 0 0
2 0.082 444.354 217.122 0 0 0
2 1848.48 53.572 0.108 0 0 0
2 13.123 707.601 715.201 0 0 0
2 1925 0.509 133.497 0 0 0
2 199.596 15.035 110.667 0 0 0
2 0.268 1.89 1998.98 0 0 0
2 835.97 732.421 298.634 0 0 0
2 540.722 212.645 1097.9 0 0 0
2 667.638 868.34 482.557 0 0 0
2 294.643 602.088 1079.23 0 0 0
2 881.233 802.42 464.734 0 0 0
2 404.068 953.766 583.247 0 0 0
2 4.312 1202.89 4.378 0 0 0
2 577.956 953.501 872.795 0 0 0
2 1830.28 1804.83 1085.81 0 0 0
2 771.52 1998.18 1885.9 0 0 0
2 2589.17 315.667 470.479 0 0 0
2 2852.06 0 598.079 0 0 0
2 2438.19 979.13 792.521 0 0 0
2 2505.44 454.146 512.275 0 0 0
2 3056.44 569.498 412.689 0 0 0
2 2701.55 329.939 925.607 0 0 0
2 2687.72 574.421 405.705 0 0 0
2 2981.56 697.055 530.925 0 0 0
2 2636.44 1017.15 160.998 0 0 0
2 2740.16 592.229 971.28 0 0 0
2 2424.97 736.37 574.624 0 0 0
2 2580.52 582.274 181.637 0 0 0
2 2535.86 350.119 591.092 0 0 0
2 2580.51 136.69 213.368 0 0 0
2 2837.9 523.634 404.695 0 0 0
2 2973.64 693.889 177.056 0 0 0
2 2909.8 128.748 394.583 0 0 0
2 2803.53 896.368 22.316 0 0 0
2 3020.14 803.77 132.099 0 0 0
2 2850.22 704.314 934.351 0 0 0
2 3017.26 623.394 624.387 0 0 0
2 3019.78 285.607 375.247 0 0 0
2 2993.31 973.953 383.585 0 0 0
2 2643.43 901.201 95.031 0 0 0
2 2697.62 20.307 545.292 0 0 0
2 3215.88 681.857 403.647 0 0 0
2 3009.46 240.537 506.01 0 0 0
2 2954.09 532.545 689.633 0 0 0
2 2447.63 400.214 178.833 0 0 0
2 2688.41 883.544 812.049 0 0 0
2 2500.43 780.225 490.77 0 0 0
2 3208.94 290.904 614.259 0 0 0
2 2452.04 536.443 22.302 0 0 0
2 3141.99 857.163 675.998 0 0 0
2 2861.31 615.87 544.473 0 0 0
2 2960.94 511.991 964.133 0 0 0
2 2661.87 413.713 465.786 0 0 0
2 2580.59 465.841 370.688 0 0 0
2 3093.38 1.06 866.39 0 0 0
2 2960.86 320.816 207.1 0 0 0
2 2974.11 625.003 47.685 0 0 0
2 2438.5 315.526 786.629 0 0 0
2 2863.75 139.16 607.461 0 0 0
2 2828.49 242.757 55.323 0 0 0
2 3041.53 820.445 734.767 0 0 0
2 3195.61 729.418 87.198 0 0 0
2 2782.3 837.829 939.16 0 0 0
2 2554.71 929.394 787.78 0 0 0
2 2650.02 645.056 842.294 0 0 0
2 3064.62 498.822 66.197 0 0 0
2 2681.94 272.534 595.444 0 0 0
2 2616.59 643.683 695.69 0 0 0
2 3067.09 691.972 0 0 0 0
2 3163.96 538.368 316.614 0 0 0
2 3005.62 33.637 958.874 0 0 0
2 3155.25 38.621 712.988 0 0 0
2 2758.89 533.256 304.515 0 0 0
2 2463.97 227.073 345.546 0 0 0
2 2972.16 932.416 70.343 0 0 0
2 3063.68 385.963 520.871 0 0 0
2 2763.65 229.054 866.826 0 0 0
2 2847.27 373.721 15.621 0 0 0
2 3120.79 295.222 461.959 0 0 0
2 3044.32 318.784 955.945 0 0 0
2 2479.3 601.03 517.42 0 0 0
2 2926.07 821.366 404.536 0 0 0
2 2971.06 646.192 307.591 0 0 0
2 3181.84 365.389 257.322 0 0 0
2 3178.68 376.169 997.09 0 0 0
2 3157.06 938.869 25.449 0 0 0
2 2887.61 187.168 845.301 0 0 0
2 2996.16 876.788 497.408 0 0 0
2 2512.71 820.272 857.367 0 0 0
2 3206.65 93.618 920.941 0 0 0
2 2600.15 581.251 490.216 0 0 0
2 3007.33 155.252 623.583 0 0 0
2 3093.58 984.911 194.061 0 0 0
2 3012.93 120.954 276.705 0 0 0
2 2450.18 462.325 752.694 0 0 0
2 2524.2 607.571 358.535 0 0 0
2 2817.01 645.457 123.126 0 0 0
2 2788.16 114.115 77.613 0 0 0
2 3158.76 999.559 685.514 0 0 0
2 2828.53 452.9 159.053 0 0 0
2 3087.41 259.701 835.363 0 0 0
2 2806.65 12.111 474.196 0 0 0
2 3134.64 654.994 787.317 0 0 0
2 2644.99 447.654 584.694 0 0 0
2 3202.09 62.569 598.116 0 0 0
2 3111.91 276.649 213.994 0 0 0
2 2553.33 913.598 519.025 0 0 0
2 2677.27 217.627 325.568 0 0 0
2 2489.78 47.347 64.757 0 0 0
2 2540.8 944.378 347.544 0 0 0
2 2804.24 682.432 438.211 0 0 0
2 2800.46 294.613 657.459 0 0 0
2 2896.78 815.956 285.031 0 0 0
2 2885.37 837.724 821.628 0 0 0
2 2739.1 707.725 577.378 0 0 0
2 2570.17 286.088 964.547 0 0 0
2 2839.06 517.578 772.66 0 0 0
2 2673.03 36.7 405.02 0 0 0
2 3119.08 11.845 486.988 0 0 0
2 2973.78 738.773 658.52 0 0 0
2 2444.7 965.236 578.774 0 0 0
2 2703.3 422.439 337.546 0 0 0
2 3208.31 184.669 477.544 0 0 0
2 3171.27 144.447 807.634 0 0 0
2 2941.95 881.541 980.767 0 0 0
2 2514.62 695.903 870.156 0 0 0
2 2622.04 1042.87 843.815 0 0 0
2 2951.33 629.447 814.958 0 0 0
2 905.157 2984.47 139.421 0 0 0
2 323.699 3154.24 289.824 0 0 0
2 803.71 2651.46 299.668 0 0 0
2 111.343 2528.21 229.993 0 0 0
2 791.932 3026.46 422.36 0 0 0
2 258.762 2497.96 565.305 0 0 0
2 266.628 3117.85 181.686 0 0 0
2 122.572 2712.3 551.267 0 0 0
2 149.27 2665.73 229.093 0 0 0
2 392.511 2815.26 941.492 0 0 0
2 327.162 3054.14 470.632 0 0 0
2 257.313 2698.34 150.799 0 0 0
2 82.195 3162.22 598.599 0 0 0
2 357.954 2541.02 66.868 0 0 0
2 33.77 2934.18 447.854 0 0 0
2 456.098 3110.73 430.734 0 0 0
2 693.723 2603.56 539.109 0 0 0
2 57.906 3051.09 741.813 0 0 0
2 491.725 3127.69 0.034 0 0 0
2 110.493 3056.57 212.706 0 0 0
2 12.618 2421.26 35.817 0 0 0
2 914.093 2569.38 570.416 0 0 0
2 141.001 2885.7 619.277 0 0 0
2 794.686 2592.83 139.329 0 0 0
2 876.545 2496.08 163.236 0 0 0
2 804.304 2752.47 516.005 0 0 0
2 607.287 2638.02 10.544 0 0 0
2 308.71 3119.16 8.584 0 0 0
2 885.922 3109.94 167.259 0 0 0
2 81.085 3128.94 342.923 0 0 0
2 560.951 3198.16 194.464 0 0 0
2 423.592 2544.7 498.466 0 0 0
2 946.465 3158.59 612 0 0 0
2 101.187 2695.68 962.953 0 0 0
2 207.089 2842.07 215.119 0 0 0
2 258.535 2570.13 337.233 0 0 0
2 938.8 2920.23 438.096 0 0 0
2 918 2870.44 222.049 0 0 0
2 182.723 2406.34 318.172 0 0 0
2 498.081 2872.36 0.482 0 0 0
2 508.908 3011.09 27.439 0 0 0
2 122.756 2582.26 552.07 0 0 0
2 863.037 2863.53 598.331 0 0 0
2 949.08 2745.14 208.599 0 0 0
2 607.696 2408.32 662.607 0 0 0
2 873.083 2857.81 968.464 0 0 0
2 300.462 2860.59 505.288 0 0 0
2 940.728 2616.73 795.544 0 0 0
2 594.446 2934.78 88.182 0 0 0
2 89.251 2620.02 9.866 0 0 0
2 13.005 3218.52 243.533 0 0 0
2 690.102 2706.93 190.111 0 0 0
2 0.787 2591.24 645.977 0 0 0
2 523.036 2583.54 779.547 0 0 0
2 776.587 2910.14 469.405 0 0 0
2 1068.01 2588.18 271.927 0 0 0
2 266.423 2769.78 401.142 0 0 0
2 761.487 2848.22 68.582 0 0 0
2 270.538 2920 319.737 0 0 0
2 168.741 3032.99 670.836 0 0 0
2 209.913 3103.68 580.802 0 0 0
2 403.4 2939.14 528.888 0 0 0
2 632.595 2960.21 404.761 0 0 0
2 13.723 2450.02 883.748 0 0 0
2 834.897 3178.38 310.316 0 0 0
2 539.697 2718.94 330.036 0 0 0
2 89.345 2958.67 130.979 0 0 0
2 413.809 2655.66 917.775 0 0 0
2 399.533 2581.71 660.629 0 0 0
2 876.313 2694.72 893.199 0 0 0
2 317.743 2432.7 410.981 0 0 0
2 652.333 2556.61 892.516 0 0 0
2 682.314 2422.54 786.853 0 0 0
2 316.623 3176.27 430.934 0 0 0
2 780.315 2976.64 913.658 0 0 0
2 665.211 3044.07 506.397 0 0 0
2 514.632 2539.76 952.501 0 0 0
2 980.534 2869.19 641.368 0 0 0
2 790.718 2912.46 227.234 0 0 0
2 692.972 3239.86 234.585 0 0 0
2 122.612 2652.06 674.243 0 0 0
2 488.949 3253.99 9.92 0 0 0
2 92.46 2800.33 182.959 0 0 0
2 658.338 2600.15 746.875 0 0 0
2 574.646 2581.05 547.912 0 0 0
2 89.067 3042.94 517.321 0 0 0
2 345.985 2720.93 308.108 0 0 0
2 330.753 2764.32 636.229 0 0 0
2 3.883 2652.31 791.448 0 0 0
2 229.927 2975.99 429.718 0 0 0
2 956.437 2980.21 261.637 0 0 0
2 240.359 3030.69 966.746 0 0 0
2 120.843 2817.8 472.628 0 0 0
2 58.287 2709.35 379.963 0 0 0
2 719.32 3145.9 596.591 0 0 0
2 503.213 3028.73 543.919 0 0 0
2 944.589 2976.02 559.755 0 0 0
2 485.83 2483.28 595.539 0 0 0
2 16.771 2543.76 123.877 0 0 0
2 48.275 3221.21 909.508 0 0 0
2 821.632 2636.23 421.554 0 0 0
2 205.764 2997.12 843.879 0 0 0
2 870.867 2795.02 65.223 0 0 0
2 403.872 2495.64 839.183 0 0 0
2 931.549 3167.73 984.672 0 0 0
2 543.695 2817.9 444.775 0 0 0
2 301.463 2914.78 728.295 0 0 0
2 380.098 2833.91 265.218 0 0 0
2 382.7 2987.39 386.07 0 0 0
2 1039.9 2491.4 135.267 0 0 0
2 841.208 3078.09 592.008 0 0 0
2 153.207 2476.18 447.021 0 0 0
2 204.773 2634.32 454.631 0 0 0
2 148.395 180.86 3187.32 0 0 0
2 433.486 924.758 2799.65 0 0 0
2 840.401 593.344 2792.18 0 0 0
2 338.098 151.853 3166.97 0 0 0
2 907.737 262.854 2671.71 0 0 0
2 213.208 442.981 2562.08 0 0 0
2 68.701 254.336 2753.82 0 0 0
2 695.059 745.167 2659.52 0 0 0
2 66.842 0 2759.61 0 0 0
2 180.559 840.035 2463.97 0 0 0
2 243.183 172.779 2460.27 0 0 0
2 16.059 67.29 2468.8 0 0 0
2 300.506 748.779 2577.46 0 0 0
2 230.773 434.997 3046.26 0 0 0
2 398.504 207.712 2935.4 0 0 0
2 112.622 471.51 3333.46 0 0 0
2 852.442 172.847 2810.32 0 0 0
2 225.194 937.078 2997.33 0 0 0
2 138.271 199.076 2867.98 0 0 0
2 731.235 429.291 3107.45 0 0 0
2 331.566 40.842 2573.3 0 0 0
2 481.217 478.009 2924.09 0 0 0
2 885.494 38.208 2944.19 0 0 0
2 347.286 352.486 2785.35 0 0 0
2 470.194 649.683 2751.38 0 0 0
2 0 791.136 3330.07 0 0 0
2 640.538 407.74 3278.22 0 0 0
2 797.982 716.058 2819.7 0 0 0
2 86.793 817.4 2723.38 0 0 0
2 312.429 624.34 2718 0 0 0
2 67.021 147.396 2967.82 0 0 0
2 409.594 59.428 2692.56 0 0 0
2 202.28 622.443 3028.68 0 0 0
2 828.925 951.667 2666.36 0 0 0
2 797.436 959.877 2538.75 0 0 0
2 831.474 158.74 2556.11 0 0 0
2 429.176 926.325 2607.86 0 0 0
2 880.827 935.799 3206.11 0 0 0
2 931.56 705.958 3228.77 0 0 0
2 181.095 446.06 3184.56 0 0 0
2 680.01 30.518 2605.67 0 0 0
2 809.632 805.333 3310.09 0 0 0
2 934.061 880.526 2688.32 0 0 0
2 34.876 917.501 2577.74 0 0 0
2 69.55 791.521 2891.13 0 0 0
2 857.903 254.004 3239.26 0 0 0
2 266.134 40.922 3330.86 0 0 0
2 422.555 569.781 3062.67 0 0 0
2 588.842 626.514 2759.86 0 0 0
2 234.774 257.468 2806.5 0 0 0
2 231.487 344.778 2903.32 0 0 0
2 688.542 642.995 2865.14 0 0 0
2 507.797 315.164 2477.65 0 0 0
2 483.363 282.798 2873.77 0 0 0
2 865.156 443.737 2388.87 0 0 0
2 928.563 544.345 2985.43 0 0 0
2 301.947 991.147 3247.95 0 0 0
2 701.2 505.664 2541.93 0 0 0
2 427.157 0 2970.99 0 0 0
2 46.924 391.702 2816.49 0 0 0
2 6.019 526.695 3293.76 0 0 0
2 584.466 231.549 3178.52 0 0 0
2 17.887 173.053 2671.43 0 0 0
2 4.624 233.134 2474.62 0 0 0
2 437.845 780.738 3196.97 0 0 0
2 797.057 660.843 2520.81 0 0 0
2 222.189 303.295 2582.3 0 0 0
2 480.89 460.453 3090.23 0 0 0
2 643.814 301.463 3069.35 0 0 0
2 51.476 350.437 3180.15 0 0 0
2 183.871 696.466 3210.67 0 0 0
2 529.756 890.173 3307.22 0 0 0
2 553.029 678.461 2636.52 0 0 0
2 385.195 351.635 3177.23 0 0 0
2 0 409.575 2609.28 0 0 0
2 619.299 64.676 3121.02 0 0 0
2 489.382 527.421 2780.6 0 0 0
2 148.878 574.952 3202.44 0 0 0
2 273.595 480.861 2855.34 0 0 0
2 156.367 0 3008.9 0 0 0
2 749.002 661.662 3307.41 0 0 0
2 617.588 206.799 2677.68 0 0 0
2 246.578 841.994 3240.65 0 0 0
2 362.384 703.24 2806.14 0 0 0
2 236.305 41.198 2796 0 0 0
2 29.586 194.213 3227.85 0 0 0
2 598.92 0 3261.51 0 0 0
2 572.105 1043.49 3148.19 0 0 0
2 232.716 540.293 3112.15 0 0 0
2 298.345 990.757 2765.28 0 0 0
2 105.337 796.188 3254.38 0 0 0
2 741.849 544.305 3026.37 0 0 0
2 507.288 929.034 3160.38 0 0 0
2 447.407 585.131 2519.42 0 0 0
2 514.552 604.773 2947.19 0 0 0
2 208.457 801.405 2833.69 0 0 0
2 348.061 680.306 2457.72 0 0 0
2 22.502 316.608 2974.41 0 0 0
2 817.713 580.524 3184.46 0 0 0
2 180.832 304.938 2698.75 0 0 0
2 656.461 639.659 3028.91 0 0 0
2 369.986 467.563 2563 0 0 0
2 484.344 785.423 2919.97 0 0 0
2 470.099 784.618 2734.99 0 0 0
2 729.938 0 2812.3 0 0 0
2 392.199 600.218 3229.1 0 0 0
2 0 236.166 3080.98 0 0 0
2 786.877 37.643 3221.99 0 0 0
2 757.506 242.704 2997.77 0 0 0
2 120.185 593.989 2907.69 0 0 0
2 140.52 920.984 2757.52 0 0 0
2 496.899 455.181 2555.15 0 0 0
2 3027.36 3149.08 79.774 0 0 0
2 2959.32 2644.83 837.813 0 0 0
2 2720.23 2651.82 738.813 0 0 0
2 2582.54 2412.72 802.731 0 0 0
2 2666.35 2686.29 331.896 0 0 0
2 2615.75 2724.53 524.778 0 0 0
2 3009.56 2803.52 618.048 0 0 0
2 2929.63 2713.39 1.546 0 0 0
2 2983.12 3005.53 9.13 0 0 0
2 2514.29 3044.34 379.095 0 0 0
2 2662.12 2562.94 121.109 0 0 0
2 2779.46 2638.81 40.093 0 0 0
2 2592.18 2543.6 803.62 0 0 0
2 2974.05 2448.66 43.441 0 0 0
2 2801.43 3162.34 157.604 0 0 0
2 2873.15 2646.22 308.704 0 0 0
2 3015.02 2771.9 861.32 0 0 0
2 2954.06 3173.85 452.211 0 0 0
2 2897.3 2584.29 555.927 0 0 0
2 3054.51 2517.21 297.3 0 0 0
2 3097.38 2546.9 161.63 0 0 0
2 2622.22 2476.98 479.554 0 0 0
2 3169.88 2750.36 676.13 0 0 0
2 3028.32 2432.88 896.289 0 0 0
2 3142.64 2555.18 990.289 0 0 0
2 3005.13 3098.91 969.872 0 0 0
2 3056.4 2503.11 420.875 0 0 0
2 3138.69 2914.65 531.499 0 0 0
2 3045.55 2670.9 599.849 0 0 0
2 2703.93 3082.3 815.062 0 0 0
2 2920.78 2451.5 727.219 0 0 0
2 2812.86 2620.88 667.047 0 0 0
2 2641.66 2909.55 201.982 0 0 0
2 2853.63 2832.66 946.284 0 0 0
2 2805.73 2557 212.377 0 0 0
2 3195.15 2783.04 399.973 0 0 0
2 3202.39 2885.37 328.256 0 0 0
2 2730.1 2788.01 293.437 0 0 0
2 2686.41 2654.71 210.894 0 0 0
2 2421.97 3053.08 0 0 0 0
2 3233.11 2556.18 401.505 0 0 0
2 2579.73 2615.11 934.939 0 0 0
2 2383.39 3078.4 989.544 0 0 0
2 3004.64 2960.55 924.072 0 0 0
2 2896.52 2762.33 373.181 0 0 0
2 3062.5 2871.2 769.147 0 0 0
2 3033.82 2625.15 381.2 0 0 0
2 2557.14 3033.83 869.833 0 0 0
2 2898.34 2791.15 503.412 0 0 0
2 2793.91 2484.61 750.877 0 0 0
2 3164.17 3050.32 438.796 0 0 0
2 2857.1 2561.64 422.397 0 0 0
2 2567.41 2849.11 665.985 0 0 0
2 3130.28 2993.38 736.464 0 0 0
2 3101.69 2978.74 361.909 0 0 0
2 2569.27 2417.1 181.191 0 0 0
2 2699.79 2901.41 607.692 0 0 0
2 2749.95 3098.6 26.668 0 0 0
2 2523.33 2893.21 279.323 0 0 0
2 3207.22 3115.21 710.4 0 0 0
2 2399.22 3098.8 432.784 0 0 0
2 3017.34 2925.02 652.238 0 0 0
2 3136.03 3065.84 575.611 0 0 0
2 2847.34 2402.89 427.491 0 0 0
2 2517.41 2947.96 136.559 0 0 0
2 2789.5 2874 701.588 0 0 0
2 2733.36 3032.41 161.103 0 0 0
2 2978.24 2842.63 84.188 0 0 0
2 2601.54 2987.55 735.09 0 0 0
2 2718.36 3106.83 947.039 0 0 0
2 2830.45 2792.8 605.624 0 0 0
2 3114.26 3216.78 557.039 0 0 0
2 3282.99 2920.23 941.608 0 0 0
2 3093.66 2657.27 802.466 0 0 0
2 2707.68 2647.87 599.929 0 0 0
2 2584.17 2750.41 60.946 0 0 0
2 2770.92 2461.03 106.122 0 0 0
2 2853.83 3018.48 946.115 0 0 0
2 3179.77 2424.27 502.217 0 0 0
2 2618.55 3172.63 559.143 0 0 0
2 2398.99 3217.62 908.984 0 0 0
2 2885.75 2378.09 577.185 0 0 0
2 3264.18 2697.42 535.133 0 0 0
2 2947.7 2718.07 734.442 0 0 0
2 2543.2 2579.63 699.001 0 0 0
2 2646.97 2917.48 405.965 0 0 0
2 3034.36 2629.49 0 0 0 0
2 2618.13 3017.76 49.891 0 0 0
2 3191.49 2407.65 854.534 0 0 0
2 3032.86 2835.01 474.575 0 0 0
2 3025.27 2512.95 581.693 0 0 0
2 3087.58 2505.1 794.199 0 0 0
2 2781.23 2864.21 82.282 0 0 0
2 2942.75 2477.32 157.622 0 0 0
2 3013.31 2608.36 501.385 0 0 0
2 2488.34 3100.69 771.078 0 0 0
2 2784.28 2922.66 219.743 0 0 0
2 2836.28 2900.27 436.02 0 0 0
2 2535.32 2424.21 560.324 0 0 0
2 2827.8 2319.09 296.353 0 0 0
2 2809.94 3165.97 334.045 0 0 0
2 2552.54 2696.42 626 0 0 0
2 2923.37 2897.15 234.13 0 0 0
2 2780.09 2684.62 498.795 0 0 0
2 2403.63 2512.63 982.489 0 0 0
2 2457.62 2924.87 445.361 0 0 0
2 3090.94 3142.98 890.606 0 0 0
2 2483.74 2657.72 826.655 0 0 0
2 2768.95 2974.53 367.352 0 0 0
2 2647.06 3114.55 234.757 0 0 0
2 2662.46 3197.09 678.682 0 0 0
2 2955.99 2437.05 493.287 0 0 0
2 2844.15 3136.25 486.186 0 0 0
2 2987.29 490.488 2706.98 0 0 0
2 2029.46 847.37 2329.83 0 0 0
2 2905 806.159 3081.79 0 0 0
2 2492.39 67.633 2684.53 0 0 0
2 2590.57 693.604 3027.07 0 0 0
2 2512.67 714.798 2377.75 0 0 0
2 2472.94 930.11 2875.17 0 0 0
2 2956.81 25.18 3092.49 0 0 0
2 2825.14 488.672 2813.57 0 0 0
2 2400.03 744.194 2523.99 0 0 0
2 2609.12 130.836 2739.46 0 0 0
2 2409.72 102.909 3068.89 0 0 0
2 2646.97 581.201 2952.58 0 0 0
2 2737.15 166.483 2595.43 0 0 0
2 2714.28 690.737 2752.91 0 0 0
2 2643.41 653.113 2349.43 0 0 0
2 2790.81 516.749 2966.36 0 0 0
2 2664.83 743.383 2906.13 0 0 0
2 2756.08 755.562 2411.4 0 0 0
2 2504.35 396.297 2618.37 0 0 0
2 2795.19 814.218 2793.75 0 0 0
2 3033.82 304.852 2941.04 0 0 0
2 2529.66 296.623 2535.98 0 0 0
2 2587.17 333.633 2765.61 0 0 0
2 2778.09 136.875 2385.31 0 0 0
2 2477.75 625.687 2736.48 0 0 0
2 3042.07 659.328 2566.97 0 0 0
2 2452.65 10.023 2807.58 0 0 0
2 2488.09 608.017 2892.5 0 0 0
2 2725.06 277.904 3061.21 0 0 0
2 2893.14 177.738 3014.65 0 0 0
2 2340.02 621.101 2454.35 0 0 0
2 2822.54 222.068 2662.68 0 0 0
2 2425.64 812.9 2695.32 0 0 0
2 2688.61 522.998 2647.09 0 0 0
2 3012.1 382.736 3073.29 0 0 0
2 2946.43 276.726 2670.71 0 0 0
2 2682.68 887.719 2745.18 0 0 0
2 2960.43 117.851 2533.99 0 0 0
2 2688.58 0 3016.73 0 0 0
2 2728.03 643.437 2880.01 0 0 0
2 2957.29 578.841 2792.13 0 0 0
2 2455.85 874.109 2524.08 0 0 0
2 3045.08 114.827 2866.58 0 0 0
2 3022.87 206.133 2764.25 0 0 0
2 2685.36 566.373 2769.4 0 0 0
2 3035.17 707.402 2699.23 0 0 0
2 2805.52 851.59 2663.63 0 0 0
2 2514.35 89.813 2915.18 0 0 0
2 2839.4 82.703 2858.89 0 0 0
2 2876.86 655.273 2689.22 0 0 0
2 3059.75 509.806 3035.23 0 0 0
2 2655.73 292.672 2900.2 0 0 0
2 2995.47 592.019 2965.31 0 0 0
2 2550.4 838.416 2426.88 0 0 0
2 3124.6 731.908 2844.23 0 0 0
2 2844.86 922.027 3021.01 0 0 0
2 2754.55 823.872 2983.9 0 0 0
2 2475.82 467.939 2487.26 0 0 0
2 2837.33 665.889 2826.76 0 0 0
2 2379.02 291.032 3036.99 0 0 0
2 2614.37 16.375 2507.19 0 0 0
2 2599.85 93.173 3097.78 0 0 0
2 2525.64 372.527 3038.02 0 0 0
2 2869.8 666.276 2953.76 0 0 0
2 2929.01 132.915 2394.34 0 0 0
2 2388.98 685.634 2343.91 0 0 0
2 2727.98 412.281 2529.31 0 0 0
2 2661.47 379.566 2393.55 0 0 0
2 2715.46 283.266 2625.43 0 0 0
2 2810.58 506.421 2534.82 0 0 0
2 3127.48 582.635 2844.07 0 0 0
2 3044.7 921.195 2924.94 0 0 0
2 2957.71 32.297 2661.28 0 0 0
2 2446.74 720.765 2910.27 0 0 0
2 2580.06 696.011 2478.78 0 0 0
2 2524.64 866.26 2642.14 0 0 0
2 2783.12 384.41 2918.21 0 0 0
2 2545.52 571.922 2546.35 0 0 0
2 2418.45 496.402 2665.07 0 0 0
2 3073.41 455.25 2480.63 0 0 0
2 2768.32 228.898 2948.14 0 0 0
2 3128.52 192.819 2452.87 0 0 0
2 2805.51 887.719 2893.99 0 0 0
2 2437.35 0 2940.92 0 0 0
2 2851.59 205.804 2830.06 0 0 0
2 3175.37 234.965 2749.96 0 0 0
2 2669.92 854.306 2526.38 0 0 0
2 2439.74 486.483 2979.08 0 0 0
2 2459.78 328.723 2938.14 0 0 0
2 2771.57 449.786 2409.87 0 0 0
2 2421.81 598.037 2555.22 0 0 0
2 2728.51 346.485 2763.42 0 0 0
2 2930.26 412.949 2537.71 0 0 0
2 2906.86 953.914 2889.6 0 0 0
2 3064.71 828.419 2636.82 0 0 0
2 2422.97 295.845 2822.75 0 0 0
2 3036.58 79.003 2742.34 0 0 0
2 2720.64 187.251 2744.05 0 0 0
2 2562.43 467.303 2963.39 0 0 0
2 2656.99 131.817 2502.62 0 0 0
2 2579.63 1003.37 2630.22 0 0 0
2 2911.38 159.185 2730.95 0 0 0
2 2393.08 272.744 2589.36 0 0 0
2 2483.09 16.62 2543.72 0 0 0
2 2529.74 235.496 2878.44 0 0 0
2 2571.09 864.322 3031.17 0 0 0
2 3080.61 372.581 2838.08 0 0 0
2 2986.48 452.828 2874.32 0 0 0
2 2570.97 782.472 2565.41 0 0 0
2 2850.75 504.962 2667.24 0 0 0
2 2922.89 0.047 2939.05 0 0 0
2 574.751 2457.68 3069.32 0 0 0
2 233.81 2712.77 2691.37 0 0 0
2 913.218 2467.55 2849.34 0 0 0
2 680.455 3033.77 2790.1 0 0 0
2 817.673 2636.37 2564.97 0 0 0
2 795.2 2556.53 2417.2 0 0 0
2 400.484 3170.44 3135.58 0 0 0
2 152.824 3109.32 3140.45 0 0 0
2 98.723 2841.41 2497.64 0 0 0
2 239.158 2609.68 3132.51 0 0 0
2 351.518 2515.09 3184.9 0 0 0
2 388.144 2467.8 2418.97 0 0 0
2 640.359 2554.16 2423.39 0 0 0
2 310.399 2623.66 2649.8 0 0 0
2 366.865 2927.52 2954.62 0 0 0
2 802.291 2673.41 3126.62 0 0 0
2 430.369 2727.26 2945.01 0 0 0
2 664.878 2619.25 2882.43 0 0 0
2 516.207 2677.99 3178.58 0 0 0
2 493.276 2884.23 2975.71 0 0 0
2 11.472 2693.09 2559.33 0 0 0
2 690.879 2747.3 2677.21 0 0 0
2 231.605 2396.89 2660.09 0 0 0
2 565.418 2690.73 2950.02 0 0 0
2 66.349 3096.84 2380.57 0 0 0
2 448.842 2826.47 3204.64 0 0 0
2 915.086 2517.26 2487.66 0 0 0
2 779.978 2814.04 3138.87 0 0 0
2 152.154 2868.87 3162.36 0 0 0
2 554.47 3018.63 2747.54 0 0 0
2 788.524 2615.85 3256.24 0 0 0
2 914.157 2542.68 2728.32 0 0 0
2 282.201 2643.33 2895.87 0 0 0
2 289.725 2879.03 2453.58 0 0 0
2 352.288 2810.28 2570.5 0 0 0
2 274.518 3139.37 3083.59 0 0 0
2 259.166 3009.93 3195.38 0 0 0
2 125.277 2357.24 2537.21 0 0 0
2 650.55 2694.87 2447.06 0 0 0
2 811.436 2849.35 2426.11 0 0 0
2 26.795 2815 2828.38 0 0 0
2 516.048 3152.5 2711.45 0 0 0
2 675.562 2648.6 3026.29 0 0 0
2 158.785 2975.36 2637.86 0 0 0
2 695.112 2980.7 3003.82 0 0 0
2 695.65 3165.21 2848.59 0 0 0
2 368.638 2664.63 2491.21 0 0 0
2 673.781 3151.93 2680.77 0 0 0
2 346.786 3196.83 2823.12 0 0 0
2 835.241 3147.84 2874.78 0 0 0
2 874.647 2771.65 2774.01 0 0 0
2 783.024 2782.88 2964.18 0 0 0
2 513.478 2786.19 2525.26 0 0 0
2 0 3115.71 2675.94 0 0 0
2 582.653 2426.35 2482.64 0 0 0
2 356.137 3042.76 3128.32 0 0 0
2 292.178 2450.04 2883.18 0 0 0
2 71.63 2481.45 3080.1 0 0 0
2 835.754 3008.41 2983.38 0 0 0
2 134.01 2743.86 2581 0 0 0
2 245.137 2886.73 2918.43 0 0 0
2 1024.84 2769.31 2867.05 0 0 0
2 556.719 2849.43 2675.36 0 0 0
2 249.701 3036.96 2553.6 0 0 0
2 225.856 2447.92 3178.9 0 0 0
2 708.08 2545.61 2528.51 0 0 0
2 416.326 2525.56 2892.8 0 0 0
2 705.376 2496.91 3000.55 0 0 0
2 589.826 3184.66 2580.7 0 0 0
2 928.171 2477.25 3140.14 0 0 0
2 91.647 2457.7 2697.94 0 0 0
2 905.211 2914.71 2776.11 0 0 0
2 773.159 3176.76 3152.41 0 0 0
2 617.747 2686.64 2568.22 0 0 0
2 678.883 2940.79 2427.89 0 0 0
2 950.509 3082.7 2445.95 0 0 0
2 504.131 2985.65 2323.92 0 0 0
2 405.287 2506.82 3066.09 0 0 0
2 847.795 3173.97 2628.66 0 0 0
2 625.319 2771.02 2856.21 0 0 0
2 470.383 2419.05 2571.86 0 0 0
2 59.509 2679.45 2673.38 0 0 0
2 948.211 2671.53 2680.59 0 0 0
2 1.092 2948.73 2598.78 0 0 0
2 200.322 3039.72 2919.26 0 0 0
2 137.445 2958.81 2778.91 0 0 0
2 378.539 2849.83 2847.12 0 0 0
2 336.392 3083.42 2729.94 0 0 0
2 351.883 2375.86 2638.04 0 0 0
2 925.758 3127.33 3158.89 0 0 0
2 267.545 2562.07 2409.95 0 0 0
2 303.187 2767.82 3119.46 0 0 0
2 581.925 2344.01 2952.12 0 0 0
2 795.42 2536.57 2803.02 0 0 0
2 882.363 2862.55 2883.44 0 0 0
2 120.616 2510.71 2813.4 0 0 0
2 119.212 2964.68 3002.1 0 0 0
2 38.04 2878.76 2701.24 0 0 0
2 737.137 2392.73 2531.98 0 0 0
2 408.313 2816.95 2705.57 0 0 0
2 198.533 2956.26 2426.05 0 0 0
2 405.422 3148.3 3002.32 0 0 0
2 667.829 3025.41 3124.15 0 0 0
2 967.51 2878.16 2617.08 0 0 0
2 153.29 2624.35 3021.76 0 0 0
2 545.482 2411.67 2784.4 0 0 0
2 41.252 3058 2839.08 0 0 0
2 0 2527.89 2628.96 0 0 0
2 933.452 2970.55 2546.7 0 0 0
2 148.689 3163.26 2699.36 0 0 0
2 964.342 3156.19 2755 0 0 0
2 980.996 2875.8 2465.59 0 0 0
2 609.021 2650.8 2760.87 0 0 0
2 3200.15 3117.64 3172.93 0 0 0
2 2893.93 2441.4 2959.05 0 0 0
2 2998.42 2595.86 2775.14 0 0 0
2 3125.46 2837.88 2902.02 0 0 0
2 2968.14 3016.38 2882.39 0 0 0
2 2755.3 2584.89 2718.2 0 0 0
2 2869.19 3042.37 2997.23 0 0 0
2 2818.36 2683.39 2808.54 0 0 0
2 2384.37 2855.77 2609.03 0 0 0
2 2772.17 2469.28 2462.68 0 0 0
2 2881.16 2468.94 2840.25 0 0 0
2 2553.08 2799.22 2998.6 0 0 0
2 3241.19 2447.99 2963.2 0 0 0
2 2963.24 3156.07 3133.01 0 0 0
2 2845.6 3223.11 3173.62 0 0 0
2 2684.3 3094.43 3108.97 0 0 0
2 2637.9 2841.94 2670.01 0 0 0
2 3149.82 2624.93 2911.51 0 0 0
2 3273.4 2628.81 2793.36 0 0 0
2 2465.42 2945.84 2623.35 0 0 0
2 2997.48 3138.63 2512.06 0 0 0
2 3101.88 3014.53 3203.91 0 0 0
2 2411.17 2593.18 3037.84 0 0 0
2 2609.43 2506.79 2826.27 0 0 0
2 3102.75 3199.49 3065.32 0 0 0
2 2940.29 2909.99 3162.38 0 0 0
2 2748.23 3027.05 2878.5 0 0 0
2 3052.63 3020.07 2536.77 0 0 0
2 2690.68 2691.79 2952.5 0 0 0
2 2985.33 2408.6 2581.34 0 0 0
2 2798.22 2906.47 3115.62 0 0 0
2 2621.39 3012.26 2573.8 0 0 0
2 2738.05 2811.28 2985.1 0 0 0
2 2468.19 3129.56 2565.89 0 0 0
2 3139.93 3210.49 3234.75 0 0 0
2 2606.09 2852.44 3094.97 0 0 0
2 2957.51 2945.65 2645.68 0 0 0
2 2806.13 3135.19 3088.02 0 0 0
2 2597.69 3156.97 2405.66 0 0 0
2 2638.49 3225.39 2965.36 0 0 0
2 3185.75 2929.28 3142.56 0 0 0
2 2632.16 2793.84 3252.63 0 0 0
2 2626.8 2914.38 3222.37 0 0 0
2 2892.35 2479.96 2445.22 0 0 0
2 2628.91 2629.28 3096.66 0 0 0
2 2921.15 3151.47 2963.67 0 0 0
2 3143.56 2539.07 2663.81 0 0 0
2 2839.61 3020.95 3112.62 0 0 0
2 3123.77 2818.58 2508.34 0 0 0
2 3111.07 2601.75 3224.45 0 0 0
2 2573.52 2665.16 3231.75 0 0 0
2 3229.51 2738.01 2601.93 0 0 0
2 2603.38 2511.12 3022.78 0 0 0
2 2816.14 2615.26 3148.75 0 0 0
2 3274.21 2573.87 3006.16 0 0 0
2 2883.7 2821.81 2706.24 0 0 0
2 2743.2 2764.11 2694.66 0 0 0
2 2481.24 2605.45 2878.43 0 0 0
2 2685.24 2762.21 3134.14 0 0 0
2 2884.81 2549.05 3040.86 0 0 0
2 2687.14 3238.57 2713.01 0 0 0
2 2655.24 2939.6 2961.79 0 0 0
2 2824.69 2949.46 2933.03 0 0 0
2 3094.23 2529.1 3022.24 0 0 0
2 2530.56 2986.85 2855.4 0 0 0
2 2801.27 2475.17 3106.01 0 0 0