LAMMPS (23 Jun 2022 - Update 1)
OMP_NUM_THREADS environment is not set. Defaulting to 1 thread. (src/comm.cpp:98)
  using 1 OpenMP thread(s) per MPI task

# Init #
dimension   3
boundary    p p p
units       real
atom_style  atomic

# Atom Definition #
read_data ${input_data}
read_data ./pgnpmf/37/dat37.dat
Reading data file ...
  orthogonal box = (-100 -100 -100) to (5100 5100 5100)
  1 by 1 by 1 MPI processor grid
  reading atoms ...
  1000 atoms
  read_data CPU = 0.006 seconds

# Settings #
pair_style table spline 9941

pair_coeff 1 1 ./pgnpmf/N20.txt DE_GNP 75.6
pair_coeff 2 2 ./pgnpmf/N100.txt DE_GNP 115.92
WARNING: 3 of 9941 force values in table DE_GNP are inconsistent with -dE/dr.
WARNING:  Should only be flagged at inflection points (src/pair_table.cpp:463)
pair_coeff 1 2 ./pgnpmf/mixed_potential.txt DE_GNP 95.66
WARNING: 1562 of 9941 force values in table DE_GNP are inconsistent with -dE/dr.
WARNING:  Should only be flagged at inflection points (src/pair_table.cpp:463)

# Neighbor list calc frequency #
neigh_modify delay 0 every 1 check yes

# Saving frequency #
variable ts_save equal floor(${steps_gen}*0.01)
variable ts_save equal floor(5000*0.01)

# Dump #
dump 1 all custom 5000 ./pgnpmf/${folder}/generation/trajectory/trajectory_${usic}_${trial}.gen.custom type x y z ix iy iz
dump 1 all custom 5000 ./pgnpmf/37/generation/trajectory/trajectory_${usic}_${trial}.gen.custom type x y z ix iy iz
dump 1 all custom 5000 ./pgnpmf/37/generation/trajectory/trajectory_1_${trial}.gen.custom type x y z ix iy iz
dump 1 all custom 5000 ./pgnpmf/37/generation/trajectory/trajectory_1_1.gen.custom type x y z ix iy iz
dump_modify 1 first no sort id
dump 2 all cfg 5000 ./pgnpmf/${folder}/generation/trajectory/dumpgen.tens_*.cfg mass type xs ys zs fx fy fz
dump 2 all cfg 5000 ./pgnpmf/37/generation/trajectory/dumpgen.tens_*.cfg mass type xs ys zs fx fy fz
dump_modify 2 element N20 N100

# Fix #
fix 1 all momentum 1000 linear 1 1 1 angular

variable T equal ${Temp}
variable T equal 300

# Velocity #
velocity all create ${T} ${Vseed} mom yes rot yes dist gaussian
velocity all create 300 ${Vseed} mom yes rot yes dist gaussian
velocity all create 300 57138 mom yes rot yes dist gaussian

fix 2 all nvt temp ${T} 370000 100.0 #iso 1.0 1.0 1000.0
fix 2 all nvt temp 300 370000 100.0 
run ${steps_gen}
run 5000
Generated 0 of 1 mixed pair_coeff terms from geometric mixing rule
Neighbor list info ...
  update every 1 steps, delay 0 steps, check yes
  max neighbors/atom: 2000, page size: 100000
  master list distance cutoff = 117.92
  ghost atom cutoff = 117.92
  binsize = 58.96, bins = 89 89 89
  1 neighbor lists, perpetual/occasional/extra = 1 0 0
  (1) pair table, perpetual
      attributes: half, newton on
      pair build: half/bin/atomonly/newton
      stencil: half/bin/3d
      bin: standard
Per MPI rank memory allocation (min/avg/max) = 8.912 | 8.912 | 8.912 Mbytes
   Step          Temp          E_pair         E_mol          TotEng         Press     
         0   300           -60744.186      0             -59850.837     -0.0072934476 
      5000   357443.95     -99434.508      0              964972.54      0.33351034   
Loop time of 0.154896 on 1 procs for 5000 steps with 1000 atoms

Performance: 2788.960 ns/day, 0.009 hours/ns, 32279.626 timesteps/s
99.5% CPU use with 1 MPI tasks x 1 OpenMP threads

MPI task timing breakdown:
Section |  min time  |  avg time  |  max time  |%varavg| %total
---------------------------------------------------------------
Pair    | 0.022401   | 0.022401   | 0.022401   |   0.0 | 14.46
Neigh   | 0.0083147  | 0.0083147  | 0.0083147  |   0.0 |  5.37
Comm    | 0.0071561  | 0.0071561  | 0.0071561  |   0.0 |  4.62
Output  | 0.0050794  | 0.0050794  | 0.0050794  |   0.0 |  3.28
Modify  | 0.092956   | 0.092956   | 0.092956   |   0.0 | 60.01
Other   |            | 0.01899    |            |       | 12.26

Nlocal:           1000 ave        1000 max        1000 min
Histogram: 1 0 0 0 0 0 0 0 0 0
Nghost:             77 ave          77 max          77 min
Histogram: 1 0 0 0 0 0 0 0 0 0
Neighs:             27 ave          27 max          27 min
Histogram: 1 0 0 0 0 0 0 0 0 0

Total # of neighbors = 27
Ave neighs/atom = 0.027
Neighbor list builds = 13
Dangerous builds = 0

fix 3 all nvt temp 370000 370000 100.0
run 400000
Generated 0 of 1 mixed pair_coeff terms from geometric mixing rule
WARNING: One or more atoms are time integrated more than once (src/modify.cpp:292)
Per MPI rank memory allocation (min/avg/max) = 8.912 | 8.912 | 8.912 Mbytes
   Step          Temp          E_pair         E_mol          TotEng         Press     
      5000   357443.95     -99434.508      0              964972.54      0.33351034   
    405000   369949.04     -322666.1       0              778978.98      0.36308111   
Loop time of 25.7683 on 1 procs for 400000 steps with 1000 atoms

Performance: 1341.183 ns/day, 0.018 hours/ns, 15522.948 timesteps/s
99.4% CPU use with 1 MPI tasks x 1 OpenMP threads

MPI task timing breakdown:
Section |  min time  |  avg time  |  max time  |%varavg| %total
---------------------------------------------------------------
Pair    | 3.0252     | 3.0252     | 3.0252     |   0.0 | 11.74
Neigh   | 3.6462     | 3.6462     | 3.6462     |   0.0 | 14.15
Comm    | 0.92412    | 0.92412    | 0.92412    |   0.0 |  3.59
Output  | 0.54779    | 0.54779    | 0.54779    |   0.0 |  2.13
Modify  | 15.919     | 15.919     | 15.919     |   0.0 | 61.78
Other   |            | 1.706      |            |       |  6.62

Nlocal:           1000 ave        1000 max        1000 min
Histogram: 1 0 0 0 0 0 0 0 0 0
Nghost:            151 ave         151 max         151 min
Histogram: 1 0 0 0 0 0 0 0 0 0
Neighs:             42 ave          42 max          42 min
Histogram: 1 0 0 0 0 0 0 0 0 0

Total # of neighbors = 42
Ave neighs/atom = 0.042
Neighbor list builds = 4873
Dangerous builds = 0

fix 4 all nvt temp 370000 ${T} 100.0
fix 4 all nvt temp 370000 300 100.0
run ${steps_gen}
run 5000
Generated 0 of 1 mixed pair_coeff terms from geometric mixing rule
WARNING: One or more atoms are time integrated more than once (src/modify.cpp:292)
Per MPI rank memory allocation (min/avg/max) = 8.913 | 8.913 | 8.913 Mbytes
   Step          Temp          E_pair         E_mol          TotEng         Press     
    405000   369949.04     -322666.1       0              778978.98      0.36308111   
    410000   32915.203     -308284.72      0             -210268.87      0.018390273  
Loop time of 0.465046 on 1 procs for 5000 steps with 1000 atoms

Performance: 928.941 ns/day, 0.026 hours/ns, 10751.630 timesteps/s
99.5% CPU use with 1 MPI tasks x 1 OpenMP threads

MPI task timing breakdown:
Section |  min time  |  avg time  |  max time  |%varavg| %total
---------------------------------------------------------------
Pair    | 0.03511    | 0.03511    | 0.03511    |   0.0 |  7.55
Neigh   | 0.052519   | 0.052519   | 0.052519   |   0.0 | 11.29
Comm    | 0.011966   | 0.011966   | 0.011966   |   0.0 |  2.57
Output  | 0.0098319  | 0.0098319  | 0.0098319  |   0.0 |  2.11
Modify  | 0.33161    | 0.33161    | 0.33161    |   0.0 | 71.31
Other   |            | 0.02401    |            |       |  5.16

Nlocal:           1000 ave        1000 max        1000 min
Histogram: 1 0 0 0 0 0 0 0 0 0
Nghost:            153 ave         153 max         153 min
Histogram: 1 0 0 0 0 0 0 0 0 0
Neighs:             39 ave          39 max          39 min
Histogram: 1 0 0 0 0 0 0 0 0 0

Total # of neighbors = 39
Ave neighs/atom = 0.039
Neighbor list builds = 66
Dangerous builds = 0


# Thermo #
thermo_style custom step temp press pe ke etotal epair lx ly lz xlo xhi ylo yhi zlo zhi vol density dt time

# Run stle #
run_style verlet

# Run #
timestep ${ts}
timestep 1
thermo ${ts_save}
thermo 50
# run ${steps_gen}

# write restart #
write_restart ${write_restart}
write_restart ./pgnpmf/37/genpmf.res
System init for write_restart ...
Generated 0 of 1 mixed pair_coeff terms from geometric mixing rule
WARNING: One or more atoms are time integrated more than once (src/modify.cpp:292)


Total wall time: 0:00:26
