LAMMPS (23 Jun 2022 - Update 1)
# Read restart
read_restart ${read_res}
read_restart ./pgnpmf/37/equpmf1.res
Reading restart file ...
  restart file = 23 Jun 2022, LAMMPS = 23 Jun 2022
WARNING: Restart file used different # of processors: 1 vs. 4 (../read_restart.cpp:654)
  restoring atom style atomic from restart
  orthogonal box = (1213.6764 1213.6764 1213.6764) to (3786.3236 3786.3236 3786.3236)
  2 by 1 by 2 MPI processor grid
  restoring pair style table from restart
  1000 atoms
  read_restart CPU = 0.005 seconds

# Settings

pair_style table spline 9941

pair_coeff 1 1 ./pgnpmf/N20.txt DE_GNP 75.6
pair_coeff 2 2 ./pgnpmf/N100.txt DE_GNP 115.92
WARNING: 3 of 9941 force values in table DE_GNP are inconsistent with -dE/dr.
WARNING:  Should only be flagged at inflection points (../pair_table.cpp:463)
pair_coeff 1 2 ./pgnpmf/mixed_potential.txt DE_GNP 95.66
WARNING: 1562 of 9941 force values in table DE_GNP are inconsistent with -dE/dr.
WARNING:  Should only be flagged at inflection points (../pair_table.cpp:463)

#Neigh_list Calc Frequency

neigh_modify delay 0 every 1 check yes

# Saving Frequency (50 frames)

variable ts_save equal ${steps_equ}
variable ts_save equal 5000

# Dump
#dump 1 all custom ${ts_save} ./pgnpmf/${folder}/equilibration/trajectory/trajectory_${usic}_${trial}.equ.custom type x y z ix iy iz
#dump_modify 1 first no sort id
dump 2 all cfg 50000 ./pgnpmf/${folder}/equilibration/trajectory/dumpgen.tens_*.cfg mass type xs ys zs fx fy fz
dump 2 all cfg 50000 ./pgnpmf/37/equilibration/trajectory/dumpgen.tens_*.cfg mass type xs ys zs fx fy fz
dump_modify 2 element N20 N100

# thermo_style
thermo_style custom step temp press pe density ke etotal lx ly lz xlo xhi ylo yhi zlo zhi vol dt time cpu tpcpu spcpu cpuremain

# run info
timestep ${ts}
timestep 0.5
thermo 200

# fix

fix 1 all momentum 1000 linear 1 1 1 angular
variable T equal ${temp}
variable T equal 300
fix 2 all nvt temp ${T} 370000 100.0
fix 2 all nvt temp 300 370000 100.0

run 100000
Generated 0 of 1 mixed pair_coeff terms from geometric mixing rule
Unused restart file global fix info:
  fix style: npt, fix ID: 5
Neighbor list info ...
  update every 1 steps, delay 0 steps, check yes
  max neighbors/atom: 2000, page size: 100000
  master list distance cutoff = 117.92
  ghost atom cutoff = 117.92
  binsize = 58.96, bins = 44 44 44
  1 neighbor lists, perpetual/occasional/extra = 1 0 0
  (1) pair table, perpetual
      attributes: half, newton on
      pair build: half/bin/atomonly/newton
      stencil: half/bin/3d
      bin: standard
Per MPI rank memory allocation (min/avg/max) = 3.205 | 3.206 | 3.206 Mbytes
   Step          Temp          Press          PotEng        Density         KinEng         TotEng           Lx             Ly             Lz            Xlo            Xhi            Ylo            Yhi            Zlo            Zhi           Volume           Dt            Time           CPU           T/CPU          S/CPU         CPULeft    
   1110000   335.11979      1.0013961     -1681817.7      0.035302554    997.92951     -1680819.8      2572.6472      2572.6472      2572.6472      1213.6764      3786.3236      1213.6764      3786.3236      1213.6764      3786.3236      1.7027101e+10  0.5            760000         0              0              0              0            
   1110200   571.43073      0.96700921    -1682353.9      0.035302554    1701.6231     -1680652.3      2572.6472      2572.6472      2572.6472      1213.6764      3786.3236      1213.6764      3786.3236      1213.6764      3786.3236      1.7027101e+10  0.5            760100         0.005642445    17720.018      35432.816      2.817108     
   1110400   1002.0685      0.92271754    -1683050.1      0.035302554    2983.989      -1680066.1      2572.6472      2572.6472      2572.6472      1213.6764      3786.3236      1213.6764      3786.3236      1213.6764      3786.3236      1.7027101e+10  0.5            760200         0.011265885    17783.62       35567.62       2.805862     
   1110600   1678.6023      0.86410554    -1683940.1      0.035302554    4998.5911     -1678941.5      2572.6472      2572.6472      2572.6472      1213.6764      3786.3236      1213.6764      3786.3236      1213.6764      3786.3236      1.7027101e+10  0.5            760300         0.017131564    17048.287      34096.864      2.8385635    
   1110800   2627.9956      0.78763029    -1685037.1      0.035302554    7825.7221     -1677211.4      2572.6472      2572.6472      2572.6472      1213.6764      3786.3236      1213.6764      3786.3236      1213.6764      3786.3236      1.7027101e+10  0.5            760400         0.023325035    16145.662      32291.559      2.8926358    
   1111000   3783.3377      0.69812856    -1686328.3      0.035302554    11266.134     -1675062.2      2572.6472      2572.6472      2572.6472      1213.6764      3786.3236      1213.6764      3786.3236      1213.6764      3786.3236      1.7027101e+10  0.5            760500         0.029798251    15448.506      30896.854      2.950291     
   1111200   4917.595       0.59820303    -1687764.3      0.035302554    14643.758     -1673120.6      2572.6472      2572.6472      2572.6472      1213.6764      3786.3236      1213.6764      3786.3236      1213.6764      3786.3236      1.7027101e+10  0.5            760600         0.035693467    16962.792      33925.716      2.9389815    
   1111400   5692.6907      0.48612993    -1689261.8      0.035302554    16951.861     -1672310        2572.6472      2572.6472      2572.6472      1213.6764      3786.3236      1213.6764      3786.3236      1213.6764      3786.3236      1.7027101e+10  0.5            760700         0.042167081    15447.241      30894.601      2.9699521    
   1111600   6089.6215      0.36530995    -1690734.4      0.035302554    18133.853     -1672600.6      2572.6472      2572.6472      2572.6472      1213.6764      3786.3236      1213.6764      3786.3236      1213.6764      3786.3236      1.7027101e+10  0.5            760800         0.04852337     15732.482      31465.153      2.98435      
   1111800   6678.1022      0.24539824    -1692158.7      0.035302554    19886.248     -1672272.4      2572.6472      2572.6472      2572.6472      1213.6764      3786.3236      1213.6764      3786.3236      1213.6764      3786.3236      1.7027101e+10  0.5            760900         0.054686597    16225.39       32450.406      2.9836001    
   1112000   7727.6531      0.12974095    -1693565        0.035302554    23011.631     -1670553.4      2572.6472      2572.6472      2572.6472      1213.6764      3786.3236      1213.6764      3786.3236      1213.6764      3786.3236      1.7027101e+10  0.5            761000         0.060836277    16260.98       32521.801      2.9811093    
   1112200   8706.4147      0.00037264739 -1694948.5      0.035302554    25926.216     -1669022.2      2572.6472      2572.6472      2572.6472      1213.6764      3786.3236      1213.6764      3786.3236      1213.6764      3786.3236      1.7027101e+10  0.5            761100         0.066978203    16281.429      32563.139      2.9776028    
   1112400   9209.5363     -0.12890543    -1696263.6      0.035302554    27424.426     -1668839.2      2572.6472      2572.6472      2572.6472      1213.6764      3786.3236      1213.6764      3786.3236      1213.6764      3786.3236      1.7027101e+10  0.5            761200         0.073362673    15663.132      31326.26       2.9835235    
   1112600   9620.9635     -0.25479932    -1697481.9      0.035302554    28649.586     -1668832.3      2572.6472      2572.6472      2572.6472      1213.6764      3786.3236      1213.6764      3786.3236      1213.6764      3786.3236      1.7027101e+10  0.5            761300         0.079711988    15749.532      31499.178      2.9862365    
   1112800   10502.829     -0.36726958    -1691232.9      0.035302554    31275.632     -1659957.2      2572.6472      2572.6472      2572.6472      1213.6764      3786.3236      1213.6764      3786.3236      1213.6764      3786.3236      1.7027101e+10  0.5            761400         0.085736336    16599.279      33198.47       2.9763723    
   1113000   11605.99      -0.48934447    -1692281.8      0.035302554    34560.656     -1657721.1      2572.6472      2572.6472      2572.6472      1213.6764      3786.3236      1213.6764      3786.3236      1213.6764      3786.3236      1.7027101e+10  0.5            761500         0.091938785    16122.763      32245.338      2.9727753    
   1113200   12316.609     -0.60775182    -1693227.4      0.035302554    36676.758     -1656550.7      2572.6472      2572.6472      2572.6472      1213.6764      3786.3236      1213.6764      3786.3236      1213.6764      3786.3236      1.7027101e+10  0.5            761600         0.099007061    14147.513      28294.919      2.9950519    
   1113400   12686.574     -0.73627772    -1694045.3      0.035302554    37778.45      -1656266.8      2572.6472      2572.6472      2572.6472      1213.6764      3786.3236      1213.6764      3786.3236      1213.6764      3786.3236      1.7027101e+10  0.5            761700         0.10482697     17182.68       34365.785      2.9783949    
   1113600   13341.6       -0.86713405    -1694740.2      0.035302554    39729.007     -1655011.2      2572.6472      2572.6472      2572.6472      1213.6764      3786.3236      1213.6764      3786.3236      1213.6764      3786.3236      1.7027101e+10  0.5            761800         0.110372       18034.242      36068.342      2.9555873    
   1113800   14406.9       -0.97968533    -1695307.2      0.035302554    42901.288     -1652405.9      2572.6472      2572.6472      2572.6472      1213.6764      3786.3236      1213.6764      3786.3236      1213.6764      3786.3236      1.7027101e+10  0.5            761900         0.11594465     17944.729      35889.478      2.9352989    
   1114000   15306.49      -1.1067621     -1695732.6      0.035302554    45580.113     -1650152.5      2572.6472      2572.6472      2572.6472      1213.6764      3786.3236      1213.6764      3786.3236      1213.6764      3786.3236      1.7027101e+10  0.5            762000         0.12147582     18079.583      36159.356      2.9154804    
   1114200   15808.747     -1.2093357     -1696025.1      0.035302554    47075.749     -1648949.4      2572.6472      2572.6472      2572.6472      1213.6764      3786.3236      1213.6764      3786.3236      1213.6764      3786.3236      1.7027101e+10  0.5            762100         0.1278879      15595.503      31190.567      2.9171229    
   1114400   16329.412     -1.3118137     -1696190.4      0.035302554    48626.201     -1647564.2      2572.6472      2572.6472      2572.6472      1213.6764      3786.3236      1213.6764      3786.3236      1213.6764      3786.3236      1.7027101e+10  0.5            762200         0.13415513     15955.987      31912.305      2.9148822    
   1114600   17221.698     -1.4014626     -1696229.6      0.035302554    51283.275     -1644946.4      2572.6472      2572.6472      2572.6472      1213.6764      3786.3236      1213.6764      3786.3236      1213.6764      3786.3236      1.7027101e+10  0.5            762300         0.13999019     17137.629      34275.669      2.9033293    
   1114800   18175.967     -1.499974      -1696142.1      0.035302554    54124.927     -1642017.2      2572.6472      2572.6472      2572.6472      1213.6764      3786.3236      1213.6764      3786.3236      1213.6764      3786.3236      1.7027101e+10  0.5            762400         0.14616491     16195.376      32390.479      2.8989882    
   1115000   18849.975     -1.5822006     -1695924.7      0.035302554    56132.005     -1639792.7      2572.6472      2572.6472      2572.6472      1213.6764      3786.3236      1213.6764      3786.3236      1213.6764      3786.3236      1.7027101e+10  0.5            762500         0.15241642     15996.053      31992.501      2.8959591    
   1115200   19392.988     -1.6665621     -1695565        0.035302554    57749.007     -1637816        2572.6472      2572.6472      2572.6472      1213.6764      3786.3236      1213.6764      3786.3236      1213.6764      3786.3236      1.7027101e+10  0.5            762600         0.15864821     16046.828      32093.482      2.8923244    
   1115400   20138.87      -1.7204301     -1695102.1      0.035302554    59970.117     -1635131.9      2572.6472      2572.6472      2572.6472      1213.6764      3786.3236      1213.6764      3786.3236      1213.6764      3786.3236      1.7027101e+10  0.5            762700         0.16466573     16617.935      33235.129      2.8847475    
   1115600   21010.719     -1.7952833     -1694514.7      0.035302554    62566.334     -1631948.4      2572.6472      2572.6472      2572.6472      1213.6764      3786.3236      1213.6764      3786.3236      1213.6764      3786.3236      1.7027101e+10  0.5            762800         0.17042648     17359.122      34718.865      2.8729463    
   1115800   21768.885     -1.8346396     -1693822.1      0.035302554    64824.022     -1628998.1      2572.6472      2572.6472      2572.6472      1213.6764      3786.3236      1213.6764      3786.3236      1213.6764      3786.3236      1.7027101e+10  0.5            762900         0.17598615     17986.737      35973.015      2.858299     
   1116000   22417.511     -1.8837678     -1693005.2      0.035302554    66755.52      -1626249.7      2572.6472      2572.6472      2572.6472      1213.6764      3786.3236      1213.6764      3786.3236      1213.6764      3786.3236      1.7027101e+10  0.5            763000         0.18206569     16448.502      32897.21       2.8524033    
   1116200   23116.222     -1.9365987     -1692077.3      0.035302554    68836.162     -1623241.1      2572.6472      2572.6472      2572.6472      1213.6764      3786.3236      1213.6764      3786.3236      1213.6764      3786.3236      1.7027101e+10  0.5            763100         0.1876353      17954.701      35909.454      2.838779     
   1116400   23882.803     -1.9664681     -1691063.6      0.035302554    71118.91      -1619944.7      2572.6472      2572.6472      2572.6472      1213.6764      3786.3236      1213.6764      3786.3236      1213.6764      3786.3236      1.7027101e+10  0.5            763200         0.19330573     17635.3        35270.799      2.8271325    
   1116600   24609.785     -1.9822164     -1691835.9      0.035302554    73283.736     -1618552.2      2572.6472      2572.6472      2572.6472      1213.6764      3786.3236      1213.6764      3786.3236      1213.6764      3786.3236      1.7027101e+10  0.5            763300         0.1989459      17729.811      35459.893      2.8154221    
   1116800   25300.776     -2.0198065     -1690631.1      0.035302554    75341.39      -1615289.7      2572.6472      2572.6472      2572.6472      1213.6764      3786.3236      1213.6764      3786.3236      1213.6764      3786.3236      1.7027101e+10  0.5            763400         0.20455501     17828.347      35656.312      2.8036407    
   1117000   25978.384     -2.023595      -1689340.6      0.035302554    77359.192     -1611981.4      2572.6472      2572.6472      2572.6472      1213.6764      3786.3236      1213.6764      3786.3236      1213.6764      3786.3236      1.7027101e+10  0.5            763500         0.21010482     18018.596      36037.205      2.7914254    
   1117200   26600.795     -2.0202986     -1687954.5      0.035302554    79212.624     -1608741.9      2572.6472      2572.6472      2572.6472      1213.6764      3786.3236      1213.6764      3786.3236      1213.6764      3786.3236      1.7027101e+10  0.5            763600         0.21565666     18012.105      36024.664      2.7796055    
   1117400   27118.319     -2.0301527     -1693871.3      0.035302554    80753.723     -1613117.6      2572.6472      2572.6472      2572.6472      1213.6764      3786.3236      1213.6764      3786.3236      1213.6764      3786.3236      1.7027101e+10  0.5            763700         0.2211239      18290.788      36581.395      2.7670672    
   1117600   27585.946     -2.0121596     -1692347        0.035302554    82146.238     -1610200.7      2572.6472      2572.6472      2572.6472      1213.6764      3786.3236      1213.6764      3786.3236      1213.6764      3786.3236      1.7027101e+10  0.5            763800         0.22687293     17394.248      34788.078      2.7583275    
   1117800   28255.76      -2.008089      -1698133.7      0.035302554    84140.827     -1613992.8      2572.6472      2572.6472      2572.6472      1213.6764      3786.3236      1213.6764      3786.3236      1213.6764      3786.3236      1.7027101e+10  0.5            763900         0.2336368      14784.326      29568.652      2.7617375    
   1118000   29108.136     -1.9625079     -1696472        0.035302554    86679.06      -1609792.9      2572.6472      2572.6472      2572.6472      1213.6764      3786.3236      1213.6764      3786.3236      1213.6764      3786.3236      1.7027101e+10  0.5            764000         0.23991894     15918.132      31836.285      2.7590974    
   1118200   29966.911     -1.9064949     -1687393.4      0.035302554    89236.343     -1598157.1      2572.6472      2572.6472      2572.6472      1213.6764      3786.3236      1213.6764      3786.3236      1213.6764      3786.3236      1.7027101e+10  0.5            764100         0.2462921      15690.808      31381.469      2.7572991    
   1118400   30790.69      -1.8474968     -1685622        0.035302554    91689.416     -1593932.5      2572.6472      2572.6472      2572.6472      1213.6764      3786.3236      1213.6764      3786.3236      1213.6764      3786.3236      1.7027101e+10  0.5            764200         0.25273166     15528.77       31057.516      2.756008     
   1118600   31560.336     -1.7707025     -1683838.6      0.035302554    93981.292     -1589857.3      2572.6472      2572.6472      2572.6472      1213.6764      3786.3236      1213.6764      3786.3236      1213.6764      3786.3236      1.7027101e+10  0.5            764300         0.25865919     16870.499      33741.146      2.749034     
   1118800   32277.062     -1.6402173     -1682053.6      0.035302554    96115.578     -1585938        2572.6472      2572.6472      2572.6472      1213.6764      3786.3236      1213.6764      3786.3236      1213.6764      3786.3236      1.7027101e+10  0.5            764400         0.26474225     16439.249      32878.427      2.74372      
   1119000   32962.436     -1.5226395     -1680280.7      0.035302554    98156.507     -1582124.1      2572.6472      2572.6472      2572.6472      1213.6764      3786.3236      1213.6764      3786.3236      1213.6764      3786.3236      1.7027101e+10  0.5            764500         0.27112558     15665.917      31331.84       2.7414076    
   1119200   33644.925     -1.4006619     -1678541.7      0.035302554    100188.84     -1578352.8      2572.6472      2572.6472      2572.6472      1213.6764      3786.3236      1213.6764      3786.3236      1213.6764      3786.3236      1.7027101e+10  0.5            764600         0.27746153     15782.983      31566.045      2.7384495    
   1119400   34365.424     -1.2313741     -1676844.8      0.035302554    102334.36     -1574510.4      2572.6472      2572.6472      2572.6472      1213.6764      3786.3236      1213.6764      3786.3236      1213.6764      3786.3236      1.7027101e+10  0.5            764700         0.2840894      15087.681      30175.261      2.7381635    
   1119600   35133.272     -1.1030153     -1675185.3      0.035302554    104620.89     -1570564.4      2572.6472      2572.6472      2572.6472      1213.6764      3786.3236      1213.6764      3786.3236      1213.6764      3786.3236      1.7027101e+10  0.5            764800         0.29020274     16357.649      32715.351      2.7327669    
   1119800   35916.712     -0.93703453    -1673543        0.035302554    106953.84     -1566589.2      2572.6472      2572.6472      2572.6472      1213.6764      3786.3236      1213.6764      3786.3236      1213.6764      3786.3236      1.7027101e+10  0.5            764900         0.29619487     16688.556      33377.302      2.7262254    
   1120000   36682.428     -0.83885029    -1671905.8      0.035302554    109234.01     -1562671.8      2572.6472      2572.6472      2572.6472      1213.6764      3786.3236      1213.6764      3786.3236      1213.6764      3786.3236      1.7027101e+10  0.5            765000         0.30243412     16027.609      32055.397      2.7219301    
   1120200   37415.617     -0.74310523    -1670252.1      0.035302554    111417.32     -1558834.7      2572.6472      2572.6472      2572.6472      1213.6764      3786.3236      1213.6764      3786.3236      1213.6764      3786.3236      1.7027101e+10  0.5            765100         0.30892175     15413.797      30827.305      2.7197464    
   1120400   38126.969     -0.61568214    -1668596.6      0.035302554    113535.6      -1555061        2572.6472      2572.6472      2572.6472      1213.6764      3786.3236      1213.6764      3786.3236      1213.6764      3786.3236      1.7027101e+10  0.5            765200         0.31517707     15986.53       31972.913      2.715395     
   1120600   38831.665     -0.50752483    -1666940.4      0.035302554    115634.07     -1551306.3      2572.6472      2572.6472      2572.6472      1213.6764      3786.3236      1213.6764      3786.3236      1213.6764      3786.3236      1.7027101e+10  0.5            765300         0.3204671      18903.881      37809.521      2.702825     
   1120800   39562.458     -0.41778006    -1665294.2      0.035302554    117810.24     -1547483.9      2572.6472      2572.6472      2572.6472      1213.6764      3786.3236      1213.6764      3786.3236      1213.6764      3786.3236      1.7027101e+10  0.5            765400         0.32595074     18236.155      36472.051      2.6921294    
   1121000   40327.3       -0.32408463    -1663668.3      0.035302554    120087.81     -1543580.5      2572.6472      2572.6472      2572.6472      1213.6764      3786.3236      1213.6764      3786.3236      1213.6764      3786.3236      1.7027101e+10  0.5            765500         0.33119568     19065.653      38130.769      2.6796928    
   1121200   41098.654     -0.22200874    -1662057.9      0.035302554    122384.77     -1539673.2      2572.6472      2572.6472      2572.6472      1213.6764      3786.3236      1213.6764      3786.3236      1213.6764      3786.3236      1.7027101e+10  0.5            765600         0.33674548     18018.875      36038.601      2.6699272    
   1121400   41864.459     -0.11464689    -1660505.7      0.035302554    124665.21     -1535840.4      2572.6472      2572.6472      2572.6472      1213.6764      3786.3236      1213.6764      3786.3236      1213.6764      3786.3236      1.7027101e+10  0.5            765700         0.34232289     17929.578      35858.906      2.6605258    
   1121600   42619.76      -0.038847709   -1659033.9      0.035302554    126914.37     -1532119.6      2572.6472      2572.6472      2572.6472      1213.6764      3786.3236      1213.6764      3786.3236      1213.6764      3786.3236      1.7027101e+10  0.5            765800         0.34756205     19086.942      38173.789      2.6486789    
   1121800   43359.675      0.02939134    -1657640.9      0.035302554    129117.71     -1528523.2      2572.6472      2572.6472      2572.6472      1213.6764      3786.3236      1213.6764      3786.3236      1213.6764      3786.3236      1.7027101e+10  0.5            765900         0.35322089     17671.232      35342.408      2.6401933    
   1122000   44104.053      0.11806289    -1656362.4      0.035302554    131334.34     -1525028        2572.6472      2572.6472      2572.6472      1213.6764      3786.3236      1213.6764      3786.3236      1213.6764      3786.3236      1.7027101e+10  0.5            766000         0.35879105     17952.96       35905.295      2.6311517    
   1122200   44869.14       0.19991332    -1662594.5      0.035302554    133612.64     -1528981.9      2572.6472      2572.6472      2572.6472      1213.6764      3786.3236      1213.6764      3786.3236      1213.6764      3786.3236      1.7027101e+10  0.5            766100         0.36396934     19311.644      38624.154      2.6194011    
   1122400   45655.714      0.25451637    -1661605.2      0.035302554    135954.92     -1525650.3      2572.6472      2572.6472      2572.6472      1213.6764      3786.3236      1213.6764      3786.3236      1213.6764      3786.3236      1.7027101e+10  0.5            766200         0.36954289     17941.803      35883.695      2.6106568    
   1122600   46448.852      0.30915918    -1660805.1      0.035302554    138316.75     -1522488.3      2572.6472      2572.6472      2572.6472      1213.6764      3786.3236      1213.6764      3786.3236      1213.6764      3786.3236      1.7027101e+10  0.5            766300         0.37495428     18479.493      36958.582      2.6008886    
   1122800   47226.816      0.35272848    -1660214.6      0.035302554    140633.39     -1519581.2      2572.6472      2572.6472      2572.6472      1213.6764      3786.3236      1213.6764      3786.3236      1213.6764      3786.3236      1.7027101e+10  0.5            766400         0.38046801     18136.447      36273.066      2.5919534    
   1123000   47979.312      0.38916978    -1667207.6      0.035302554    142874.2      -1524333.4      2572.6472      2572.6472      2572.6472      1213.6764      3786.3236      1213.6764      3786.3236      1213.6764      3786.3236      1.7027101e+10  0.5            766500         0.38610009     17755.332      35510.418      2.5839157    
   1123200   48733.846      0.42544217    -1667044.4      0.035302554    145121.07     -1521923.4      2572.6472      2572.6472      2572.6472      1213.6764      3786.3236      1213.6764      3786.3236      1213.6764      3786.3236      1.7027101e+10  0.5            766600         0.3913875      18913.166      37826.862      2.5736834    
   1123400   49523.04       0.43311692    -1667129.2      0.035302554    147471.16     -1519658        2572.6472      2572.6472      2572.6472      1213.6764      3786.3236      1213.6764      3786.3236      1213.6764      3786.3236      1.7027101e+10  0.5            766700         0.39704193     17684.948      35369.384      2.5659723    
   1123600   50330.604      0.43145544    -1667432.4      0.035302554    149875.95     -1517556.5      2572.6472      2572.6472      2572.6472      1213.6764      3786.3236      1213.6764      3786.3236      1213.6764      3786.3236      1.7027101e+10  0.5            766800         0.40271255     17634.893      35269.798      2.5584232    
   1123800   51122.366      0.46342268    -1669862.1      0.035302554    152233.68     -1517628.4      2572.6472      2572.6472      2572.6472      1213.6764      3786.3236      1213.6764      3786.3236      1213.6764      3786.3236      1.7027101e+10  0.5            766900         0.40789769     19285.912      38571.958      2.5478961    
   1124000   51857.335      0.44945083    -1670615.5      0.035302554    154422.29     -1516193.2      2572.6472      2572.6472      2572.6472      1213.6764      3786.3236      1213.6764      3786.3236      1213.6764      3786.3236      1.7027101e+10  0.5            767000         0.41356223     17653.581      35307.069      2.5404676    
   1124200   52574.97       0.44792501    -1671572.1      0.035302554    156559.28     -1515012.8      2572.6472      2572.6472      2572.6472      1213.6764      3786.3236      1213.6764      3786.3236      1213.6764      3786.3236      1.7027101e+10  0.5            767100         0.41880809     19062.797      38125.775      2.5305578    
   1124400   53371.656      0.43195078    -1672691.5      0.035302554    158931.68     -1513759.8      2572.6472      2572.6472      2572.6472      1213.6764      3786.3236      1213.6764      3786.3236      1213.6764      3786.3236      1.7027101e+10  0.5            767200         0.42435224     18037.011      36074.073      2.522551     
   1124600   54264.266      0.41108165    -1673957.5      0.035302554    161589.72     -1512367.8      2572.6472      2572.6472      2572.6472      1213.6764      3786.3236      1213.6764      3786.3236      1213.6764      3786.3236      1.7027101e+10  0.5            767300         0.42995638     17843.957      35687.902      2.5149628    
   1124800   55233.705      0.37486524    -1675357.5      0.035302554    164476.54     -1510880.9      2572.6472      2572.6472      2572.6472      1213.6764      3786.3236      1213.6764      3786.3236      1213.6764      3786.3236      1.7027101e+10  0.5            767400         0.43520119     19066.351      38132.761      2.5053603    
   1125000   57638.139      0.3742534     -1676852.3      0.035302554    171636.53     -1505215.8      2572.6472      2572.6472      2572.6472      1213.6764      3786.3236      1213.6764      3786.3236      1213.6764      3786.3236      1.7027101e+10  0.5            767500         0.44047954     18945.526      37890.901      2.496063     
   1125200   58594.372      0.32817405    -1678438.5      0.035302554    174484.03     -1503954.4      2572.6472      2572.6472      2572.6472      1213.6764      3786.3236      1213.6764      3786.3236      1213.6764      3786.3236      1.7027101e+10  0.5            767600         0.44596867     18217.763      36435.62       2.488048     
   1125400   56060.743      0.260484      -1680029.9      0.035302554    166939.32     -1513090.6      2572.6472      2572.6472      2572.6472      1213.6764      3786.3236      1213.6764      3786.3236      1213.6764      3786.3236      1.7027101e+10  0.5            767700         0.451863       16965.333      33930.309      2.4823249    
   1125600   56268.177      0.2200443     -1683514.5      0.035302554    167557.02     -1515957.5      2572.6472      2572.6472      2572.6472      1213.6764      3786.3236      1213.6764      3786.3236      1213.6764      3786.3236      1.7027101e+10  0.5            767800         0.45734722     18233.878      36468.254      2.474378     
   1125800   59520.194      0.20349987    -1685475.1      0.035302554    177240.97     -1508234.2      2572.6472      2572.6472      2572.6472      1213.6764      3786.3236      1213.6764      3786.3236      1213.6764      3786.3236      1.7027101e+10  0.5            767900         0.46250823     19376.585      38753.224      2.4647704    
   1126000   60878.279      0.16019263    -1694445.6      0.035302554    181285.12     -1513160.4      2572.6472      2572.6472      2572.6472      1213.6764      3786.3236      1213.6764      3786.3236      1213.6764      3786.3236      1.7027101e+10  0.5            768000         0.46806515     17995.558      35990.636      2.4573538    
   1126200   60249.896      0.10009703    -1695958        0.035302554    179413.9      -1516544.1      2572.6472      2572.6472      2572.6472      1213.6764      3786.3236      1213.6764      3786.3236      1213.6764      3786.3236      1.7027101e+10  0.5            768100         0.47366211     17866.919      35733.824      2.4501895    
   1126400   60448.62       0.056159403   -1697385.2      0.035302554    180005.67     -1517379.6      2572.6472      2572.6472      2572.6472      1213.6764      3786.3236      1213.6764      3786.3236      1213.6764      3786.3236      1.7027101e+10  0.5            768200         0.47922891     17963.564      35927.567      2.4429092    
   1126600   61460.252      0.04320062    -1698728        0.035302554    183018.13     -1515709.9      2572.6472      2572.6472      2572.6472      1213.6764      3786.3236      1213.6764      3786.3236      1213.6764      3786.3236      1.7027101e+10  0.5            768300         0.48495776     17455.586      34910.935      2.4364852    
   1126800   63063.915     -0.0028210145  -1699960.3      0.035302554    187793.57     -1512166.8      2572.6472      2572.6472      2572.6472      1213.6764      3786.3236      1213.6764      3786.3236      1213.6764      3786.3236      1.7027101e+10  0.5            768400         0.49070989     17384.429      34768.864      2.4301941    
   1127000   65860.798     -0.024289237   -1701080.9      0.035302554    196122.21     -1504958.7      2572.6472      2572.6472      2572.6472      1213.6764      3786.3236      1213.6764      3786.3236      1213.6764      3786.3236      1.7027101e+10  0.5            768500         0.49601432     18852.348      37704.505      2.4217283    
   1127200   65987.282     -0.035821023   -1702091.7      0.035302554    196498.86     -1505592.8      2572.6472      2572.6472      2572.6472      1213.6764      3786.3236      1213.6764      3786.3236      1213.6764      3786.3236      1.7027101e+10  0.5            768600         0.50162901     17810.438      35621.416      2.4148292    
   1127400   62566.878     -0.10090295    -1702944        0.035302554    186313.48     -1516630.5      2572.6472      2572.6472      2572.6472      1213.6764      3786.3236      1213.6764      3786.3236      1213.6764      3786.3236      1.7027101e+10  0.5            768700         0.5073862      17369.696      34739.007      2.4086371    
   1127600   63588.969     -0.11494728    -1711054        0.035302554    189357.09     -1521697        2572.6472      2572.6472      2572.6472      1213.6764      3786.3236      1213.6764      3786.3236      1213.6764      3786.3236      1.7027101e+10  0.5            768800         0.51315301     17340.588      34681.177      2.4024994    
   1127800   66653.384     -0.10484987    -1704305.2      0.035302554    198482.4      -1505822.8      2572.6472      2572.6472      2572.6472      1213.6764      3786.3236      1213.6764      3786.3236      1213.6764      3786.3236      1.7027101e+10  0.5            768900         0.51838357     19118.353      38236.612      2.3938943    
   1128000   67326.503     -0.12867966    -1704809.7      0.035302554    200486.83     -1504322.9      2572.6472      2572.6472      2572.6472      1213.6764      3786.3236      1213.6764      3786.3236      1213.6764      3786.3236      1.7027101e+10  0.5            769000         0.52413666     17382.018      34764.217      2.3877439    
   1128200   67115.169     -0.1187297     -1705165.1      0.035302554    199857.51     -1505307.6      2572.6472      2572.6472      2572.6472      1213.6764      3786.3236      1213.6764      3786.3236      1213.6764      3786.3236      1.7027101e+10  0.5            769100         0.52996842     17147.473      34294.87       2.3819562    
   1128400   67842.167     -0.1194623     -1705396.2      0.035302554    202022.39     -1503373.8      2572.6472      2572.6472      2572.6472      1213.6764      3786.3236      1213.6764      3786.3236      1213.6764      3786.3236      1.7027101e+10  0.5            769200         0.53592642     16784.043      33568.126      2.3767274    
   1128600   72651.144     -0.069146118   -1705499        0.035302554    216342.7      -1489156.3      2572.6472      2572.6472      2572.6472      1213.6764      3786.3236      1213.6764      3786.3236      1213.6764      3786.3236      1.7027101e+10  0.5            769300         0.54095587     19882.977      39765.708      2.367419     
   1128800   72605.513     -0.071364009   -1705460.9      0.035302554    216206.82     -1489254.1      2572.6472      2572.6472      2572.6472      1213.6764      3786.3236      1213.6764      3786.3236      1213.6764      3786.3236      1.7027101e+10  0.5            769400         0.54664644     17572.935      35146.136      2.3610569    
   1129000   69449.463     -0.068603962   -1705286.5      0.035302554    206808.64     -1498477.9      2572.6472      2572.6472      2572.6472      1213.6764      3786.3236      1213.6764      3786.3236      1213.6764      3786.3236      1.7027101e+10  0.5            769500         0.55210243     18328.382      36656.556      2.3537095    
   1129200   69749.547     -0.038902234   -1705010.5      0.035302554    207702.24     -1497308.3      2572.6472      2572.6472      2572.6472      1213.6764      3786.3236      1213.6764      3786.3236      1213.6764      3786.3236      1.7027101e+10  0.5            769600         0.55710248     20000.116      40001.384      2.3444809    
   1129400   72144.123      0.0041094233  -1704634        0.035302554    214832.88     -1489801.1      2572.6472      2572.6472      2572.6472      1213.6764      3786.3236      1213.6764      3786.3236      1213.6764      3786.3236      1.7027101e+10  0.5            769700         0.56260969     18157.909      36315.311      2.3374492    
   1129600   73532.162      0.058292492   -1704163.9      0.035302554    218966.22     -1485197.6      2572.6472      2572.6472      2572.6472      1213.6764      3786.3236      1213.6764      3786.3236      1213.6764      3786.3236      1.7027101e+10  0.5            769800         0.56772167     19562.03       39123.546      2.3288264    
   1129800   73291.983      0.077756531   -1703619.2      0.035302554    218251.01     -1485368.2      2572.6472      2572.6472      2572.6472      1213.6764      3786.3236      1213.6764      3786.3236      1213.6764      3786.3236      1.7027101e+10  0.5            769900         0.57369778     16733.237      33466.821      2.3237744    
   1130000   73327.556      0.13273691    -1703023.5      0.035302554    218356.94     -1484666.6      2572.6472      2572.6472      2572.6472      1213.6764      3786.3236      1213.6764      3786.3236      1213.6764      3786.3236      1.7027101e+10  0.5            770000         0.57870847     19957.483      39914.352      2.3148428    
   1130200   74066.237      0.18601697    -1702386.1      0.035302554    220556.61     -1481829.5      2572.6472      2572.6472      2572.6472      1213.6764      3786.3236      1213.6764      3786.3236      1213.6764      3786.3236      1.7027101e+10  0.5            770100         0.58448157     17321.611      34643.757      2.3090001    
   1130400   75836.722      0.24902566    -1709110.8      0.035302554    225828.81     -1483282        2572.6472      2572.6472      2572.6472      1213.6764      3786.3236      1213.6764      3786.3236      1213.6764      3786.3236      1.7027101e+10  0.5            770200         0.58996406     18239.661      36478.95       2.3020259    
   1130600   77705.155      0.33358473    -1708468.6      0.035302554    231392.68     -1477075.9      2572.6472      2572.6472      2572.6472      1213.6764      3786.3236      1213.6764      3786.3236      1213.6764      3786.3236      1.7027101e+10  0.5            770300         0.5955129      18021.885      36044.323      2.2953345    
   1130800   78487.878      0.38125079    -1707860.1      0.035302554    233723.5      -1474136.6      2572.6472      2572.6472      2572.6472      1213.6764      3786.3236      1213.6764      3786.3236      1213.6764      3786.3236      1.7027101e+10  0.5            770400         0.6013099      17250.445      34500.794      2.289611     
   1131000   77348.215      0.41861605    -1707332.7      0.035302554    230329.78     -1477002.9      2572.6472      2572.6472      2572.6472      1213.6764      3786.3236      1213.6764      3786.3236      1213.6764      3786.3236      1.7027101e+10  0.5            770500         0.60721133     16944.764      33888.885      2.2842798    
   1131200   76356.116      0.4428832     -1706903.9      0.035302554    227375.47     -1479528.4      2572.6472      2572.6472      2572.6472      1213.6764      3786.3236      1213.6764      3786.3236      1213.6764      3786.3236      1.7027101e+10  0.5            770600         0.61297136     17361.253      34723.048      2.2784111    
   1131400   79675.051      0.50622238    -1706613.2      0.035302554    237258.7      -1469354.5      2572.6472      2572.6472      2572.6472      1213.6764      3786.3236      1213.6764      3786.3236      1213.6764      3786.3236      1.7027101e+10  0.5            770700         0.61807971     19575.923      39151.723      2.2701511    
   1131600   82210.842      0.57123622    -1706472.5      0.035302554    244809.85     -1461662.6      2572.6472      2572.6472      2572.6472      1213.6764      3786.3236      1213.6764      3786.3236      1213.6764      3786.3236      1.7027101e+10  0.5            770800         0.62401464     16849.197      33698.263      2.2649502    
   1131800   80757.62       0.58151702    -1706460.3      0.035302554    240482.4      -1465977.9      2572.6472      2572.6472      2572.6472      1213.6764      3786.3236      1213.6764      3786.3236      1213.6764      3786.3236      1.7027101e+10  0.5            770900         0.62986001     17107.554      34215.143      2.2594141    
   1132000   78036.93       0.6084839     -1706601.4      0.035302554    232380.65     -1474220.7      2572.6472      2572.6472      2572.6472      1213.6764      3786.3236      1213.6764      3786.3236      1213.6764      3786.3236      1.7027101e+10  0.5            771000         0.63515606     18882.15       37763.915      2.2519252    
   1132200   78732.013      0.66124029    -1706864.1      0.035302554    234450.49     -1472413.6      2572.6472      2572.6472      2572.6472      1213.6764      3786.3236      1213.6764      3786.3236      1213.6764      3786.3236      1.7027101e+10  0.5            771100         0.64092715     17327.47       34654.958      2.2461405    
   1132400   84625.957      0.7464843     -1707264.7      0.035302554    252001.65     -1455263.1      2572.6472      2572.6472      2572.6472      1213.6764      3786.3236      1213.6764      3786.3236      1213.6764      3786.3236      1.7027101e+10  0.5            771200         0.64690837     16718.98       33438.017      2.2410838    
   1132600   85402.909      0.79737091    -1707786.1      0.035302554    254315.28     -1453470.8      2572.6472      2572.6472      2572.6472      1213.6764      3786.3236      1213.6764      3786.3236      1213.6764      3786.3236      1.7027101e+10  0.5            771300         0.65258147     17627.361      35254.902      2.2349545    
   1132800   83109.93       0.81115356    -1708391.4      0.035302554    247487.18     -1460904.2      2572.6472      2572.6472      2572.6472      1213.6764      3786.3236      1213.6764      3786.3236      1213.6764      3786.3236      1.7027101e+10  0.5            771400         0.65839436     17203.168      34405.95       2.2293079    
   1133000   82634.944      0.83536738    -1709055.8      0.035302554    246072.75     -1462983        2572.6472      2572.6472      2572.6472      1213.6764      3786.3236      1213.6764      3786.3236      1213.6764      3786.3236      1.7027101e+10  0.5            771500         0.66377748     18576.481      37152.899      2.2222193    
   1133200   88378.936      0.92103849    -1717155.5      0.035302554    263177.38     -1453978.2      2572.6472      2572.6472      2572.6472      1213.6764      3786.3236      1213.6764      3786.3236      1213.6764      3786.3236      1.7027101e+10  0.5            771600         0.66936202     17906.684      35813.925      2.2158263    
   1133400   89425.769      0.97062905    -1717894.1      0.035302554    266294.67     -1451599.5      2572.6472      2572.6472      2572.6472      1213.6764      3786.3236      1213.6764      3786.3236      1213.6764      3786.3236      1.7027101e+10  0.5            771700         0.67531383     16801.417      33602.856      2.2106502    
   1133600   86870.552      0.99161657    -1722386.4      0.035302554    258685.67     -1463700.7      2572.6472      2572.6472      2572.6472      1213.6764      3786.3236      1213.6764      3786.3236      1213.6764      3786.3236      1.7027101e+10  0.5            771800         0.68094683     17752.823      35505.4        2.2044283    
   1133800   86640.163      1.0364114     -1723041.8      0.035302554    257999.61     -1465042.2      2572.6472      2572.6472      2572.6472      1213.6764      3786.3236      1213.6764      3786.3236      1213.6764      3786.3236      1.7027101e+10  0.5            771900         0.68618797     19079.564      38159.346      2.1969618    
   1134000   88953.651      1.092568      -1723616.7      0.035302554    264888.78     -1458727.9      2572.6472      2572.6472      2572.6472      1213.6764      3786.3236      1213.6764      3786.3236      1213.6764      3786.3236      1.7027101e+10  0.5            772000         0.69183695     17702.455      35404.503      2.190824     
   1134200   90783.749      1.1581778     -1724114.3      0.035302554    270338.5      -1453775.8      2572.6472      2572.6472      2572.6472      1213.6764      3786.3236      1213.6764      3786.3236      1213.6764      3786.3236      1.7027101e+10  0.5            772100         0.6971293      18895.173      37790.767      2.1835771    
   1134400   90696.439      1.2062658     -1731832.9      0.035302554    270078.51     -1461754.4      2572.6472      2572.6472      2572.6472      1213.6764      3786.3236      1213.6764      3786.3236      1213.6764      3786.3236      1.7027101e+10  0.5            772200         0.70289131     17355.07       34709.875      2.1778179    
   1134600   90678.045      1.260074      -1732002        0.035302554    270023.73     -1461978.3      2572.6472      2572.6472      2572.6472      1213.6764      3786.3236      1213.6764      3786.3236      1213.6764      3786.3236      1.7027101e+10  0.5            772300         0.70931473     15568.009      31136.236      2.1740853    
   1134800   91734.854      1.3396565     -1724601.4      0.035302554    273170.73     -1451430.7      2572.6472      2572.6472      2572.6472      1213.6764      3786.3236      1213.6764      3786.3236      1213.6764      3786.3236      1.7027101e+10  0.5            772400         0.71459149     18951.019      37901.931      2.1668323    
   1135000   94214.08       1.4225006     -1724354.9      0.035302554    280553.44     -1443801.5      2572.6472      2572.6472      2572.6472      1213.6764      3786.3236      1213.6764      3786.3236      1213.6764      3786.3236      1.7027101e+10  0.5            772500         0.72036302     17325.921      34651.523      2.1610964    
   1135200   95876.717      1.5168359     -1723831        0.035302554    285504.49     -1438326.5      2572.6472      2572.6472      2572.6472      1213.6764      3786.3236      1213.6764      3786.3236      1213.6764      3786.3236      1.7027101e+10  0.5            772600         0.7261238      17359.297      34718.967      2.1553264    
   1135400   93058.504      1.5681444     -1723029.2      0.035302554    277112.33     -1445916.9      2572.6472      2572.6472      2572.6472      1213.6764      3786.3236      1213.6764      3786.3236      1213.6764      3786.3236      1.7027101e+10  0.5            772700         0.73129024     19355.605      38711.556      2.1478114    
   1135600   90011.665      1.6403822     -1721987        0.035302554    268039.37     -1453947.6      2572.6472      2572.6472      2572.6472      1213.6764      3786.3236      1213.6764      3786.3236      1213.6764      3786.3236      1.7027101e+10  0.5            772800         0.73698345     17564.759      35129.634      2.1418643    
   1135800   95132.37       1.7633237     -1720695.3      0.035302554    283287.95     -1437407.3      2572.6472      2572.6472      2572.6472      1213.6764      3786.3236      1213.6764      3786.3236      1213.6764      3786.3236      1.7027101e+10  0.5            772900         0.74254751     17972.572      35944.782      2.1355499    
   1136000   97293.772      1.8937561     -1719120.5      0.035302554    289724.24     -1429396.3      2572.6472      2572.6472      2572.6472      1213.6764      3786.3236      1213.6764      3786.3236      1213.6764      3786.3236      1.7027101e+10  0.5            773000         0.74786272     18813.975      37627.921      2.1285386    
   1136200   96696.122      1.9852164     -1717311.1      0.035302554    287944.54     -1429366.6      2572.6472      2572.6472      2572.6472      1213.6764      3786.3236      1213.6764      3786.3236      1213.6764      3786.3236      1.7027101e+10  0.5            773100         0.7535548      17568.057      35136.275      2.1226148    
   1136400   97090.784      2.0777919     -1722671.5      0.035302554    289119.78     -1433551.7      2572.6472      2572.6472      2572.6472      1213.6764      3786.3236      1213.6764      3786.3236      1213.6764      3786.3236      1.7027101e+10  0.5            773200         0.75941345     17068.863      34137.819      2.1171588    
   1136600   101571.81      2.268402      -1713077.3      0.035302554    302463.51     -1410613.7      2572.6472      2572.6472      2572.6472      1213.6764      3786.3236      1213.6764      3786.3236      1213.6764      3786.3236      1.7027101e+10  0.5            773300         0.76476633     18681.696      37363.106      2.1103011    
   1136800   102243.06      2.3948862     -1710634.3      0.035302554    304462.37     -1406171.9      2572.6472      2572.6472      2572.6472      1213.6764      3786.3236      1213.6764      3786.3236      1213.6764      3786.3236      1.7027101e+10  0.5            773400         0.77038005     17813.417      35626.86       2.1041786    
   1137000   96445.306      2.4854141     -1708044.5      0.035302554    287197.65     -1420846.9      2572.6472      2572.6472      2572.6472      1213.6764      3786.3236      1213.6764      3786.3236      1213.6764      3786.3236      1.7027101e+10  0.5            773500         0.77627338     16967.955      33935.554      2.0988198    
   1137200   94786.511      2.6174714     -1705420.8      0.035302554    282258.05     -1423162.7      2572.6472      2572.6472      2572.6472      1213.6764      3786.3236      1213.6764      3786.3236      1213.6764      3786.3236      1.7027101e+10  0.5            773600         0.78205225     17304.759      34610.004      2.0931455    
   1137400   102467.97      2.8148494     -1695308        0.035302554    305132.11     -1390175.9      2572.6472      2572.6472      2572.6472      1213.6764      3786.3236      1213.6764      3786.3236      1213.6764      3786.3236      1.7027101e+10  0.5            773700         0.7873051      19037.382      38074.801      2.0860767    
   1137600   102645.83      2.9536114     -1692439.2      0.035302554    305661.77     -1386777.5      2572.6472      2572.6472      2572.6472      1213.6764      3786.3236      1213.6764      3786.3236      1213.6764      3786.3236      1.7027101e+10  0.5            773800         0.79296248     17675.792      35350.866      2.0800962    
   1137800   102300.42      3.0949331     -1689543.9      0.035302554    304633.19     -1384910.7      2572.6472      2572.6472      2572.6472      1213.6764      3786.3236      1213.6764      3786.3236      1213.6764      3786.3236      1.7027101e+10  0.5            773900         0.79872506     17353.507      34707.562      2.0743924    
   1138000   103868.64      3.2448976     -1686654.6      0.035302554    309303.07     -1377351.5      2572.6472      2572.6472      2572.6472      1213.6764      3786.3236      1213.6764      3786.3236      1213.6764      3786.3236      1.7027101e+10  0.5            774000         0.80442801     17534.782      35069.274      2.0685349    
   1138200   106534.12      3.420512      -1683747.4      0.035302554    317240.41     -1366507        2572.6472      2572.6472      2572.6472      1213.6764      3786.3236      1213.6764      3786.3236      1213.6764      3786.3236      1.7027101e+10  0.5            774100         0.8095853      19389.893      38780.08       2.0612904    
   1138400   106759         3.5607259     -1680867.6      0.035302554    317910.06     -1362957.6      2572.6472      2572.6472      2572.6472      1213.6764      3786.3236      1213.6764      3786.3236      1213.6764      3786.3236      1.7027101e+10  0.5            774200         0.81455724     20112.987      40226.58       2.0536075    
   1138600   103400.93      3.6795868     -1678072.1      0.035302554    307910.3      -1370161.8      2572.6472      2572.6472      2572.6472      1213.6764      3786.3236      1213.6764      3786.3236      1213.6764      3786.3236      1.7027101e+10  0.5            774300         0.82026476     17520.659      35040.617      2.0477996    
   1138800   102069.04      3.8184345     -1675436.9      0.035302554    303944.16     -1371492.7      2572.6472      2572.6472      2572.6472      1213.6764      3786.3236      1213.6764      3786.3236      1213.6764      3786.3236      1.7027101e+10  0.5            774400         0.82559681     18754.569      37509.581      2.0410643    
   1139000   108166.86      3.9976669     -1672894.7      0.035302554    322102.44     -1350792.3      2572.6472      2572.6472      2572.6472      1213.6764      3786.3236      1213.6764      3786.3236      1213.6764      3786.3236      1.7027101e+10  0.5            774500         0.83118254     17902.808      35805.353      2.0349697    
   1139200   109476.4       4.1370013     -1670392.5      0.035302554    326002.03     -1344390.5      2572.6472      2572.6472      2572.6472      1213.6764      3786.3236      1213.6764      3786.3236      1213.6764      3786.3236      1.7027101e+10  0.5            774600         0.83665182     18284.002      36568.272      2.0285995    
   1139400   108180.93      4.2568162     -1667981.5      0.035302554    322144.34     -1345837.2      2572.6472      2572.6472      2572.6472      1213.6764      3786.3236      1213.6764      3786.3236      1213.6764      3786.3236      1.7027101e+10  0.5            774700         0.84263792     16705.351      33410.696      2.0234827    
   1139600   108408.98      4.3544081     -1665689.3      0.035302554    322823.44     -1342865.9      2572.6472      2572.6472      2572.6472      1213.6764      3786.3236      1213.6764      3786.3236      1213.6764      3786.3236      1.7027101e+10  0.5            774800         0.84791816     18938.44       37876.492      2.0166757    
   1139800   113945.46      4.5099345     -1663488.3      0.035302554    339310.13     -1324178.1      2572.6472      2572.6472      2572.6472      1213.6764      3786.3236      1213.6764      3786.3236      1213.6764      3786.3236      1.7027101e+10  0.5            774900         0.85360916     17571.546      35143.419      2.0108563    
   1140000   113816.6       4.5820886     -1661353.1      0.035302554    338926.41     -1322426.7      2572.6472      2572.6472      2572.6472      1213.6764      3786.3236      1213.6764      3786.3236      1213.6764      3786.3236      1.7027101e+10  0.5            775000         0.85904879     18383.708      36767.166      2.0044523    
   1140200   108458.75      4.6086122     -1659346.7      0.035302554    322971.63     -1336375.1      2572.6472      2572.6472      2572.6472      1213.6764      3786.3236      1213.6764      3786.3236      1213.6764      3786.3236      1.7027101e+10  0.5            775100         0.86465495     17837.633      35675.457      1.9984459    
   1140400   108558.92      4.6715235     -1657520.6      0.035302554    323269.93     -1334250.6      2572.6472      2572.6472      2572.6472      1213.6764      3786.3236      1213.6764      3786.3236      1213.6764      3786.3236      1.7027101e+10  0.5            775200         0.87087368     16080.278      32160.644      1.9938475    
   1140600   117080.45      4.8080545     -1655793.5      0.035302554    348645.58     -1307147.9      2572.6472      2572.6472      2572.6472      1213.6764      3786.3236      1213.6764      3786.3236      1213.6764      3786.3236      1.7027101e+10  0.5            775300         0.87678799     16908.246      33816.749      1.9885371    
   1140800   114880.78      4.8258179     -1654111        0.035302554    342095.35     -1312015.7      2572.6472      2572.6472      2572.6472      1213.6764      3786.3236      1213.6764      3786.3236      1213.6764      3786.3236      1.7027101e+10  0.5            775400         0.88210633     18802.895      37605.472      1.9818801    
   1141000   111458.65      4.8500778     -1652530.9      0.035302554    331904.82     -1320626.1      2572.6472      2572.6472      2572.6472      1213.6764      3786.3236      1213.6764      3786.3236      1213.6764      3786.3236      1.7027101e+10  0.5            775500         0.88840318     15880.739      31761.196      1.9774188    
   1141200   114230.07      4.9226116     -1651065.1      0.035302554    340157.65     -1310907.4      2572.6472      2572.6472      2572.6472      1213.6764      3786.3236      1213.6764      3786.3236      1213.6764      3786.3236      1.7027101e+10  0.5            775600         0.89365308     19048.098      38096.472      1.9706245    
   1141400   119515.48      4.9879377     -1649664.7      0.035302554    355896.69     -1293768        2572.6472      2572.6472      2572.6472      1213.6764      3786.3236      1213.6764      3786.3236      1213.6764      3786.3236      1.7027101e+10  0.5            775700         0.8995808      16869.921      33739.626      1.9653313    
   1141600   118010.14      5.0006462     -1648324.9      0.035302554    351414.04     -1296910.8      2572.6472      2572.6472      2572.6472      1213.6764      3786.3236      1213.6764      3786.3236      1213.6764      3786.3236      1.7027101e+10  0.5            775800         0.90519472     17812.992      35626.555      1.9593502    
   1141800   116025.2       5.001806      -1647106.4      0.035302554    345503.22     -1301603.2      2572.6472      2572.6472      2572.6472      1213.6764      3786.3236      1213.6764      3786.3236      1213.6764      3786.3236      1.7027101e+10  0.5            775900         0.91053077     18740.437      37480.178      1.9527783    
   1142000   117500.46      5.0325063     -1638671.7      0.035302554    349896.29     -1288775.5      2572.6472      2572.6472      2572.6472      1213.6764      3786.3236      1213.6764      3786.3236      1213.6764      3786.3236      1.7027101e+10  0.5            776000         0.91628256     17385.949      34771.863      1.9471052    
   1142200   125180.96      5.0855373     -1637750        0.035302554    372767.53     -1264982.5      2572.6472      2572.6472      2572.6472      1213.6764      3786.3236      1213.6764      3786.3236      1213.6764      3786.3236      1.7027101e+10  0.5            776100         0.92175057     18288.015      36576.438      1.9408334    
   1142400   128104.43      5.0974645     -1636858.8      0.035302554    381473.11     -1255385.7      2572.6472      2572.6472      2572.6472      1213.6764      3786.3236      1213.6764      3786.3236      1213.6764      3786.3236      1.7027101e+10  0.5            776200         0.92761625     17048.325      34096.556      1.9354014    
   1142600   122649.45      5.0504048     -1643393.6      0.035302554    365229.11     -1278164.4      2572.6472      2572.6472      2572.6472      1213.6764      3786.3236      1213.6764      3786.3236      1213.6764      3786.3236      1.7027101e+10  0.5            776300         0.93321631     17857.213      35713.941      1.9294151    
   1142800   119134.73      5.0104897     -1642677.9      0.035302554    354762.89     -1287915        2572.6472      2572.6472      2572.6472      1213.6764      3786.3236      1213.6764      3786.3236      1213.6764      3786.3236      1.7027101e+10  0.5            776400         0.93893745     17478.927      34958.245      1.9236812    
   1143000   120205.19      4.9925796     -1649466.8      0.035302554    357950.52     -1291516.3      2572.6472      2572.6472      2572.6472      1213.6764      3786.3236      1213.6764      3786.3236      1213.6764      3786.3236      1.7027101e+10  0.5            776500         0.94467564     17427.019      34853.88       1.9179825    
   1143200   125970.93      5.0060082     -1656373.2      0.035302554    375119.92     -1281253.3      2572.6472      2572.6472      2572.6472      1213.6764      3786.3236      1213.6764      3786.3236      1213.6764      3786.3236      1.7027101e+10  0.5            776600         0.9498871      19188.473      38377.389      1.9112231    
   1143400   126506.98      4.9956471     -1655907.9      0.035302554    376716.18     -1279191.7      2572.6472      2572.6472      2572.6472      1213.6764      3786.3236      1213.6764      3786.3236      1213.6764      3786.3236      1.7027101e+10  0.5            776700         0.95542674     18051.975      36103.801      1.9051365    
   1143600   120206.49      4.9065404     -1655431.3      0.035302554    357954.4      -1297476.9      2572.6472      2572.6472      2572.6472      1213.6764      3786.3236      1213.6764      3786.3236      1213.6764      3786.3236      1.7027101e+10  0.5            776800         0.96081925     18544.006      37088.157      1.8987662    
   1143800   116292.04      4.8389751     -1655006        0.035302554    346297.82     -1308708.2      2572.6472      2572.6472      2572.6472      1213.6764      3786.3236      1213.6764      3786.3236      1213.6764      3786.3236      1.7027101e+10  0.5            776900         0.96637929     17985.569      35970.912      1.8927353    
   1144000   127415.22      4.8866459     -1654624.9      0.035302554    379420.77     -1275204.1      2572.6472      2572.6472      2572.6472      1213.6764      3786.3236      1213.6764      3786.3236      1213.6764      3786.3236      1.7027101e+10  0.5            777000         0.97172664     18700.569      37401.256      1.8862974    
   1144200   128848.81      4.8613386     -1654174.1      0.035302554    383689.76     -1270484.4      2572.6472      2572.6472      2572.6472      1213.6764      3786.3236      1213.6764      3786.3236      1213.6764      3786.3236      1.7027101e+10  0.5            777100         0.97747789     17387.636      34775.109      1.880649     
   1144400   126120.46      4.7945197     -1653616.1      0.035302554    375565.18     -1278051        2572.6472      2572.6472      2572.6472      1213.6764      3786.3236      1213.6764      3786.3236      1213.6764      3786.3236      1.7027101e+10  0.5            777200         0.98292136     18370.821      36741.945      1.8744123    
   1144600   125050.25      4.7474488     -1645598.9      0.035302554    372378.29     -1273220.6      2572.6472      2572.6472      2572.6472      1213.6764      3786.3236      1213.6764      3786.3236      1213.6764      3786.3236      1.7027101e+10  0.5            777300         0.98847252     18013.977      36028.116      1.8683887    
   1144800   130376.59      4.7218063     -1652252.7      0.035302554    388239.22     -1264013.5      2572.6472      2572.6472      2572.6472      1213.6764      3786.3236      1213.6764      3786.3236      1213.6764      3786.3236      1.7027101e+10  0.5            777400         0.99432778     17078.842      34157.777      1.8629398    
   1145000   133596.29      4.6918422     -1651369.8      0.035302554    397826.92     -1253542.8      2572.6472      2572.6472      2572.6472      1213.6764      3786.3236      1213.6764      3786.3236      1213.6764      3786.3236      1.7027101e+10  0.5            777500         0.99987097     18040.235      36080.282      1.8569071    
   1145200   129182.01      4.6051        -1650375.4      0.035302554    384681.97     -1265693.5      2572.6472      2572.6472      2572.6472      1213.6764      3786.3236      1213.6764      3786.3236      1213.6764      3786.3236      1.7027101e+10  0.5            777600         1.0055049      17749.461      35498.543      1.8510473    
   1145400   122945.5       4.4940474     -1642022.4      0.035302554    366110.7      -1275911.7      2572.6472      2572.6472      2572.6472      1213.6764      3786.3236      1213.6764      3786.3236      1213.6764      3786.3236      1.7027101e+10  0.5            777700         1.0109916      18226.267      36452.913      1.8449207    
   1145600   128808.06      4.4757887     -1641119.8      0.035302554    383568.41     -1257551.4      2572.6472      2572.6472      2572.6472      1213.6764      3786.3236      1213.6764      3786.3236      1213.6764      3786.3236      1.7027101e+10  0.5            777800         1.0167966      17226.478      34452.672      1.8393775    
   1145800   135700.38      4.4398382     -1640213.3      0.035302554    404092.57     -1236120.7      2572.6472      2572.6472      2572.6472      1213.6764      3786.3236      1213.6764      3786.3236      1213.6764      3786.3236      1.7027101e+10  0.5            777900         1.0220288      19112.532      38225.306      1.832804     
   1146000   134538.36      4.3638309     -1631930.7      0.035302554    400632.25     -1231298.4      2572.6472      2572.6472      2572.6472      1213.6764      3786.3236      1213.6764      3786.3236      1213.6764      3786.3236      1.7027101e+10  0.5            778000         1.0271175      19651.261      39302.159      1.8259905    
   1146200   130753.86      4.243853      -1629229.1      0.035302554    389362.67     -1239866.4      2572.6472      2572.6472      2572.6472      1213.6764      3786.3236      1213.6764      3786.3236      1213.6764      3786.3236      1.7027101e+10  0.5            778100         1.0320915      20104.515      40209.637      1.8189936    
   1146400   132467.4       4.1569529     -1628580        0.035302554    394465.3      -1234114.7      2572.6472      2572.6472      2572.6472      1213.6764      3786.3236      1213.6764      3786.3236      1213.6764      3786.3236      1.7027101e+10  0.5            778200         1.0376973      17838.712      35677.239      1.8131231    
   1146600   139820.71      4.1160039     -1628113.2      0.035302554    416362.18     -1211751        2572.6472      2572.6472      2572.6472      1213.6764      3786.3236      1213.6764      3786.3236      1213.6764      3786.3236      1.7027101e+10  0.5            778300         1.0437021      16653.214      33306.228      1.8079468    
   1146800   138877.4       4.0073149     -1627822.7      0.035302554    413553.18     -1214269.5      2572.6472      2572.6472      2572.6472      1213.6764      3786.3236      1213.6764      3786.3236      1213.6764      3786.3236      1.7027101e+10  0.5            778400         1.0489356      19107.851      38216.161      1.8014364    
   1147000   135282.02      3.8652481     -1627411.1      0.035302554    402846.76     -1224564.3      2572.6472      2572.6472      2572.6472      1213.6764      3786.3236      1213.6764      3786.3236      1213.6764      3786.3236      1.7027101e+10  0.5            778500         1.054421       18229.988      36459.452      1.7953693    
   1147200   135887.08      3.7616232     -1620279.5      0.035302554    404648.53     -1215631        2572.6472      2572.6472      2572.6472      1213.6764      3786.3236      1213.6764      3786.3236      1213.6764      3786.3236      1.7027101e+10  0.5            778600         1.0594725      19796.316      39592.906      1.7885754    
   1147400   138101.97      3.6418118     -1620845        0.035302554    411244.09     -1209601        2572.6472      2572.6472      2572.6472      1213.6764      3786.3236      1213.6764      3786.3236      1213.6764      3786.3236      1.7027101e+10  0.5            778700         1.064871       18523.537      37047.355      1.7823813    
   1147600   140134.36      3.508012      -1621693.5      0.035302554    417296.21     -1204397.3      2572.6472      2572.6472      2572.6472      1213.6764      3786.3236      1213.6764      3786.3236      1213.6764      3786.3236      1.7027101e+10  0.5            778800         1.070452       17917.881      35835.448      1.7764985    
   1147800   141003.01      3.3796596     -1622807.4      0.035302554    419882.9      -1202924.5      2572.6472      2572.6472      2572.6472      1213.6764      3786.3236      1213.6764      3786.3236      1213.6764      3786.3236      1.7027101e+10  0.5            778900         1.0761245      17628.924      35257.96       1.7707693    
   1148000   138968.59      3.2236916     -1624165.5      0.035302554    413824.72     -1210340.8      2572.6472      2572.6472      2572.6472      1213.6764      3786.3236      1213.6764      3786.3236      1213.6764      3786.3236      1.7027101e+10  0.5            779000         1.0814993      18605.62       37210.943      1.7645549    
   1148200   137611.31      3.0584844     -1618358.5      0.035302554    409782.99     -1208575.5      2572.6472      2572.6472      2572.6472      1213.6764      3786.3236      1213.6764      3786.3236      1213.6764      3786.3236      1.7027101e+10  0.5            779100         1.0872581      17364.412      34729.084      1.7589709    
   1148400   143441.55      2.9702277     -1620125.9      0.035302554    427144.43     -1192981.5      2572.6472      2572.6472      2572.6472      1213.6764      3786.3236      1213.6764      3786.3236      1213.6764      3786.3236      1.7027101e+10  0.5            779200         1.092995       17431.014      34862.161      1.7533497    
   1148600   147940.76      2.8601705     -1620134.5      0.035302554    440542.31     -1179592.2      2572.6472      2572.6472      2572.6472      1213.6764      3786.3236      1213.6764      3786.3236      1213.6764      3786.3236      1.7027101e+10  0.5            779300         1.0981641      19345.765      38691.088      1.7468243    
   1148800   142733.36      2.6472884     -1622063.4      0.035302554    425035.59     -1197027.9      2572.6472      2572.6472      2572.6472      1213.6764      3786.3236      1213.6764      3786.3236      1213.6764      3786.3236      1.7027101e+10  0.5            779400         1.1037994      17745.527      35491.513      1.7410476    
   1149000   138444.06      2.4877041     -1619784.3      0.035302554    412262.78     -1207521.5      2572.6472      2572.6472      2572.6472      1213.6764      3786.3236      1213.6764      3786.3236      1213.6764      3786.3236      1.7027101e+10  0.5            779500         1.1092709      18276.45       36552.293      1.735017     
   1149200   142627.9       2.3576451     -1621263.8      0.035302554    424721.54     -1196542.3      2572.6472      2572.6472      2572.6472      1213.6764      3786.3236      1213.6764      3786.3236      1213.6764      3786.3236      1.7027101e+10  0.5            779600         1.114225       20185.11       40370.7        1.7281891    
   1149400   146147.25      2.2410034     -1623024.1      0.035302554    435201.54     -1187822.6      2572.6472      2572.6472      2572.6472      1213.6764      3786.3236      1213.6764      3786.3236      1213.6764      3786.3236      1.7027101e+10  0.5            779700         1.1198873      17660.515      35320.955      1.7224697    
   1149600   148257.25      2.127228      -1624622.4      0.035302554    441484.78     -1183137.6      2572.6472      2572.6472      2572.6472      1213.6764      3786.3236      1213.6764      3786.3236      1213.6764      3786.3236      1.7027101e+10  0.5            779800         1.1256629      17314.386      34628.851      1.7169235    
   1149800   147332.16      1.9949355     -1609315.5      0.035302554    438730.01     -1170585.5      2572.6472      2572.6472      2572.6472      1213.6764      3786.3236      1213.6764      3786.3236      1213.6764      3786.3236      1.7027101e+10  0.5            779900         1.1312352      17946.078      35892.421      1.7110674    
   1150000   142778.4       1.8280927     -1595588.2      0.035302554    425169.69     -1170418.5      2572.6472      2572.6472      2572.6472      1213.6764      3786.3236      1213.6764      3786.3236      1213.6764      3786.3236      1.7027101e+10  0.5            780000         1.1388869      13068.785      26137.262      1.7083338    
   1150200   144689.37      1.7162367     -1588914.4      0.035302554    430860.24     -1158054.1      2572.6472      2572.6472      2572.6472      1213.6764      3786.3236      1213.6764      3786.3236      1213.6764      3786.3236      1.7027101e+10  0.5            780100         1.1441338      19059.182      38118.443      1.7019734    
   1150400   153702.69      1.6507738     -1581905.7      0.035302554    457700.36     -1124205.4      2572.6472      2572.6472      2572.6472      1213.6764      3786.3236      1213.6764      3786.3236      1213.6764      3786.3236      1.7027101e+10  0.5            780200         1.1498314      17551.093      35101.797      1.6962893    
   1150600   152750.19      1.539559      -1574521.4      0.035302554    454863.99     -1119657.5      2572.6472      2572.6472      2572.6472      1213.6764      3786.3236      1213.6764      3786.3236      1213.6764      3786.3236      1.7027101e+10  0.5            780300         1.155452       17791.603      35583.877      1.6904922    
   1150800   148204.98      1.3758541     -1574136.4      0.035302554    441329.13     -1132807.3      2572.6472      2572.6472      2572.6472      1213.6764      3786.3236      1213.6764      3786.3236      1213.6764      3786.3236      1.7027101e+10  0.5            780400         1.1604938      19834.525      39668.687      1.683857     
   1151000   148895.56      1.2812882     -1573423.5      0.035302554    443385.56     -1130037.9      2572.6472      2572.6472      2572.6472      1213.6764      3786.3236      1213.6764      3786.3236      1213.6764      3786.3236      1.7027101e+10  0.5            780500         1.1654785      20061.573      40123.573      1.677155     
   1151200   160756.09      1.2907739     -1572407.1      0.035302554    478704.18     -1093702.9      2572.6472      2572.6472      2572.6472      1213.6764      3786.3236      1213.6764      3786.3236      1213.6764      3786.3236      1.7027101e+10  0.5            780600         1.1706417      19367.571      38734.745      1.6707248    
   1151400   157023.15      1.1698993     -1569234.9      0.035302554    467588.11     -1101646.8      2572.6472      2572.6472      2572.6472      1213.6764      3786.3236      1213.6764      3786.3236      1213.6764      3786.3236      1.7027101e+10  0.5            780700         1.1766508      16641.477      33283.198      1.665504     
   1151600   150831.95      1.0495818     -1567812.2      0.035302554    449151.79     -1118660.4      2572.6472      2572.6472      2572.6472      1213.6764      3786.3236      1213.6764      3786.3236      1213.6764      3786.3236      1.7027101e+10  0.5            780800         1.1824191      17336.347      34672.531      1.6599374    
   1151800   151894.89      0.97320185    -1573663.4      0.035302554    452317.05     -1121346.4      2572.6472      2572.6472      2572.6472      1213.6764      3786.3236      1213.6764      3786.3236      1213.6764      3786.3236      1.7027101e+10  0.5            780900         1.1878178      18522.755      37045.516      1.6538546    
   1152000   158232.58      0.94094127    -1564275.2      0.035302554    471189.61     -1093085.6      2572.6472      2572.6472      2572.6472      1213.6764      3786.3236      1213.6764      3786.3236      1213.6764      3786.3236      1.7027101e+10  0.5            781000         1.1934919      17623.9        35247.409      1.6481587    
   1152200   159236.97      0.89141007    -1562527.9      0.035302554    474180.52     -1088347.4      2572.6472      2572.6472      2572.6472      1213.6764      3786.3236      1213.6764      3786.3236      1213.6764      3786.3236      1.7027101e+10  0.5            781100         1.1993216      17153.282      34306.977      1.6426758    
   1152400   156798.74      0.81366882    -1558871.3      0.035302554    466919.86     -1091951.5      2572.6472      2572.6472      2572.6472      1213.6764      3786.3236      1213.6764      3786.3236      1213.6764      3786.3236      1.7027101e+10  0.5            781200         1.2050569      17436.083      34872.124      1.6370614    
   1152600   156436.11      0.77814299    -1542393.5      0.035302554    465840.01     -1076553.5      2572.6472      2572.6472      2572.6472      1213.6764      3786.3236      1213.6764      3786.3236      1213.6764      3786.3236      1.7027101e+10  0.5            781300         1.2102664      19195.387      38391.091      1.6307376    
   1152800   158675.26      0.74124242    -1540763.9      0.035302554    472507.83     -1068256.1      2572.6472      2572.6472      2572.6472      1213.6764      3786.3236      1213.6764      3786.3236      1213.6764      3786.3236      1.7027101e+10  0.5            781400         1.2159003      17749.565      35498.663      1.6249914    
   1153000   162891.53      0.74066741    -1539206.5      0.035302554    485063.15     -1054143.3      2572.6472      2572.6472      2572.6472      1213.6764      3786.3236      1213.6764      3786.3236      1213.6764      3786.3236      1.7027101e+10  0.5            781500         1.2215232      17785.031      35570.353      1.6192313    
   1153200   164270.39      0.72055641    -1537732        0.035302554    489169.18     -1048562.9      2572.6472      2572.6472      2572.6472      1213.6764      3786.3236      1213.6764      3786.3236      1213.6764      3786.3236      1.7027101e+10  0.5            781600         1.2271284      17840.217      35680.319      1.6134496    
   1153400   156351.06      0.63059957    -1536403.6      0.035302554    465586.75     -1070816.8      2572.6472      2572.6472      2572.6472      1213.6764      3786.3236      1213.6764      3786.3236      1213.6764      3786.3236      1.7027101e+10  0.5            781700         1.2326773      18021.525      36043.069      1.6075959    
   1153600   154394.84      0.59686986    -1532993        0.035302554    459761.47     -1073231.5      2572.6472      2572.6472      2572.6472      1213.6764      3786.3236      1213.6764      3786.3236      1213.6764      3786.3236      1.7027101e+10  0.5            781800         1.2384583      17298.042      34595.911      1.6020453    
   1153800   163489.69      0.64842386    -1524972.9      0.035302554    486844.38     -1038128.6      2572.6472      2572.6472      2572.6472      1213.6764      3786.3236      1213.6764      3786.3236      1213.6764      3786.3236      1.7027101e+10  0.5            781900         1.2436592      19227.745      38455.844      1.5957481    
   1154000   165026.28      0.66226554    -1516670.6      0.035302554    491420.07     -1025250.6      2572.6472      2572.6472      2572.6472      1213.6764      3786.3236      1213.6764      3786.3236      1213.6764      3786.3236      1.7027101e+10  0.5            782000         1.2492448      17903.135      35806          1.5899507    
   1154200   162651.29      0.62426533    -1506532.3      0.035302554    484347.78     -1022184.5      2572.6472      2572.6472      2572.6472      1213.6764      3786.3236      1213.6764      3786.3236      1213.6764      3786.3236      1.7027101e+10  0.5            782100         1.2548692      17779.706      35559.639      1.5842041    
   1154400   161658.57      0.58694233    -1505703.8      0.035302554    481391.62     -1024312.2      2572.6472      2572.6472      2572.6472      1213.6764      3786.3236      1213.6764      3786.3236      1213.6764      3786.3236      1.7027101e+10  0.5            782200         1.2603655      18193.819      36387.235      1.5782984    
   1154600   169250.59      0.6339635     -1502972.1      0.035302554    503999.34     -998972.77      2572.6472      2572.6472      2572.6472      1213.6764      3786.3236      1213.6764      3786.3236      1213.6764      3786.3236      1.7027101e+10  0.5            782300         1.2657965      18412.971      36826.092      1.5723151    
   1154800   172771.15      0.65515959    -1500201.7      0.035302554    514482.99     -985718.7       2572.6472      2572.6472      2572.6472      1213.6764      3786.3236      1213.6764      3786.3236      1213.6764      3786.3236      1.7027101e+10  0.5            782400         1.2717691      16742.866      33485.682      1.5670041    
[...]
   1799400   326.00549      1.0298282     -2679653.4      0.092187311    970.78867     -2678682.7      1868.208       1868.208       1868.208       1565.896       3434.104       1565.896       3434.104       1565.896       3434.104       6.5204217e+09  0.5            1104700        11.335965      12548.094      25096.049      0.4152082    
   1799600   325.99637      1.036791      -2679938.3      0.092235577    970.76153     -2678967.5      1867.8821      1867.8821      1867.8821      1566.059       3433.941       1566.059       3433.941       1566.059       3433.941       6.5170097e+09  0.5            1104800        11.343645      13020.142      26040.602      0.40736856   
   1799800   325.95963      1.0450868     -2680221.9      0.092284745    970.6521      -2679251.2      1867.5503      1867.5503      1867.5503      1566.2249      3433.7751      1566.2249      3433.7751      1566.2249      3433.7751      6.5135375e+09  0.5            1104900        11.351538      12669.683      25339.267      0.39953662   
   1800000   325.89129      1.0512177     -2680506.1      0.092333381    970.44861     -2679535.6      1867.2223      1867.2223      1867.2223      1566.3888      3433.6112      1566.3888      3433.6112      1566.3888      3433.6112      6.5101065e+09  0.5            1105000        11.360836      10754.885      21509.53       0.39175306   
   1800200   325.95343      1.0568904     -2680791.1      0.092381416    970.63367     -2679820.4      1866.8986      1866.8986      1866.8986      1566.5507      3433.4493      1566.5507      3433.4493      1566.5507      3433.4493      6.5067215e+09  0.5            1105100        11.368762      12617.516      25235.093      0.38392105   
   1800400   325.99647      1.0593312     -2681079.4      0.092426455    970.76183     -2680108.6      1866.5953      1866.5953      1866.5953      1566.7023      3433.2977      1566.7023      3433.2977      1566.7023      3433.2977      6.5035508e+09  0.5            1105200        11.376568      12809.731      25619.725      0.37608498   
   1800600   325.95043      1.0321349     -2681385.1      0.092454994    970.62472     -2680414.5      1866.4033      1866.4033      1866.4033      1566.7984      3433.2016      1566.7984      3433.2016      1566.7984      3433.2016      6.5015433e+09  0.5            1105300        11.384482      12636.538      25273.063      0.36825242   
   1800800   325.88041      1.01634       -2681683.3      0.092490253    970.4162      -2680712.8      1866.1661      1866.1661      1866.1661      1566.917       3433.083       1566.917       3433.083       1566.917       3433.083       6.4990648e+09  0.5            1105400        11.392507      12460.12       24920.094      0.36042328   
   1801000   325.83407      1.0447046     -2681953.1      0.092552453    970.27822     -2680982.8      1865.7479      1865.7479      1865.7479      1567.126       3432.874       1567.126       3432.874       1567.126       3432.874       6.4946971e+09  0.5            1105500        11.40064       12296.177      24592.412      0.35259719   
   1801200   325.89277      1.0501338     -2682234.7      0.092603854    970.45303     -2681264.2      1865.4027      1865.4027      1865.4027      1567.2987      3432.7013      1567.2987      3432.7013      1567.2987      3432.7013      6.4910921e+09  0.5            1105600        11.409481      11311.419      22622.93       0.34479208   
   1801400   325.91913      0.98675339    -2682557.9      0.092615778    970.53152     -2681587.3      1865.3226      1865.3226      1865.3226      1567.3387      3432.6613      1567.3387      3432.6613      1567.3387      3432.6613      6.4902564e+09  0.5            1105700        11.417754      12087.124      24174.089      0.33696879   
   1801600   326.00059      0.97143699    -2682854.1      0.092654094    970.7741      -2681883.4      1865.0654      1865.0654      1865.0654      1567.4673      3432.5327      1567.4673      3432.5327      1567.4673      3432.5327      6.4875724e+09  0.5            1105800        11.42551       12893.227      25786.571      0.32912998   
   1801800   326.06117      1.0126026     -2683123        0.092720102    970.95449     -2682152        1864.6227      1864.6227      1864.6227      1567.6886      3432.3114      1567.6886      3432.3114      1567.6886      3432.3114      6.4829539e+09  0.5            1105900        11.43347       12563.284      25126.499      0.32129702   
   1802000   325.9979       1.0512258     -2683394.8      0.092781897    970.76608     -2682424.1      1864.2087      1864.2087      1864.2087      1567.8957      3432.1043      1567.8957      3432.1043      1567.8957      3432.1043      6.4786361e+09  0.5            1106000        11.441707      12139.268      24278.471      0.3134715    
   1802200   325.94876      1.0412615     -2691060.1      0.092828448    970.61976     -2690089.5      1863.897       1863.897       1863.897       1568.0515      3431.9485      1568.0515      3431.9485      1568.0515      3431.9485      6.4753872e+09  0.5            1106100        11.449969      12104.43       24209.171      0.30564605   
   1802400   325.84066      0.95606842    -2691398.7      0.092824575    970.29785     -2690428.4      1863.9229      1863.9229      1863.9229      1568.0385      3431.9615      1568.0385      3431.9615      1568.0385      3431.9615      6.4756574e+09  0.5            1106200        11.457966      12503.732      25007.368      0.29781314   
   1802600   325.84242      1.0178983     -2691658.9      0.092898311    970.30309     -2690688.6      1863.4297      1863.4297      1863.4297      1568.2852      3431.7148      1568.2852      3431.7148      1568.2852      3431.7148      6.4705175e+09  0.5            1106300        11.466155      12212.213      24424.495      0.28998484   
   1802800   325.80414      1.0391113     -2691937.9      0.0929522      970.18909     -2690967.7      1863.0695      1863.0695      1863.0695      1568.4653      3431.5347      1568.4653      3431.5347      1568.4653      3431.5347      6.4667662e+09  0.5            1106400        11.473983      12774.309      25548.484      0.28214719   
   1803000   325.72257      1.0320274     -2692230.3      0.092993173    969.94619     -2691260.4      1862.7958      1862.7958      1862.7958      1568.6021      3431.3979      1568.6021      3431.3979      1568.6021      3431.3979      6.4639169e+09  0.5            1106500        11.482344      11960.974      23921.914      0.27432226   
   1803200   325.78008      1.0292283     -2692518.4      0.093038414    970.11745     -2691548.3      1862.4938      1862.4938      1862.4938      1568.7531      3431.2469      1568.7531      3431.2469      1568.7531      3431.2469      6.4607738e+09  0.5            1106600        11.490197      12733.324      25466.482      0.26648485   
   1803400   325.85028      1.0098846     -2692815.1      0.093075827    970.3265      -2691844.7      1862.2443      1862.2443      1862.2443      1568.8779      3431.1221      1568.8779      3431.1221      1568.8779      3431.1221      6.4581768e+09  0.5            1106700        11.498105      12646.217      25292.786      0.25864862   
   1803600   325.95177      0.98453581    -2693115.3      0.093110202    970.6287      -2692144.7      1862.0151      1862.0151      1862.0151      1568.9925      3431.0075      1568.9925      3431.0075      1568.9925      3431.0075      6.4557925e+09  0.5            1106800        11.505747      13084.347      26168.571      0.25080653   
   1803800   326.06237      0.98084251    -2693404.9      0.09315587     970.95806     -2692434        1861.7107      1861.7107      1861.7107      1569.1446      3430.8554      1569.1446      3430.8554      1569.1446      3430.8554      6.4526276e+09  0.5            1106900        11.513595      12742.262      25484.482      0.24296905   
   1804000   326.05717      0.98561954    -2693692.8      0.093203831    970.94259     -2692721.8      1861.3913      1861.3913      1861.3913      1569.3043      3430.6957      1569.3043      3430.6957      1569.3043      3430.6957      6.4493073e+09  0.5            1107000        11.521416      12787.14       25574.117      0.23513098   
   1804200   326.05805      1.0084833     -2693974.3      0.093257985    970.94521     -2693003.3      1861.031       1861.031       1861.031       1569.4845      3430.5155      1569.4845      3430.5155      1569.4845      3430.5155      6.4455622e+09  0.5            1107100        11.529837      11874.321      23748.727      0.22730479   
   1804400   325.92506      1.0011028     -2694273.6      0.093293688    970.54916     -2693303.1      1860.7935      1860.7935      1860.7935      1569.6032      3430.3968      1569.6032      3430.3968      1569.6032      3430.3968      6.4430955e+09  0.5            1107200        11.537445      13143.829      26287.7        0.21946232   
   1804600   325.72044      0.99701434    -2694571.6      0.093329711    969.93986     -2693601.6      1860.5541      1860.5541      1860.5541      1569.7229      3430.2771      1569.7229      3430.2771      1569.7229      3430.2771      6.4406086e+09  0.5            1107300        11.545244      12823.002      25646.05       0.21162366   
   1804800   325.65392      1.0047204     -2704118.9      0.093388178    969.74176     -2703149.1      1860.1657      1860.1657      1860.1657      1569.9171      3430.0829      1569.9171      3430.0829      1569.9171      3430.0829      6.4365764e+09  0.5            1107400        11.5529        13061.356      26122.804      0.20378254   
   1805000   325.61235      1.0005406     -2704410.1      0.093430091    969.61797     -2703440.5      1859.8875      1859.8875      1859.8875      1570.0562      3429.9438      1570.0562      3429.9438      1570.0562      3429.9438      6.4336889e+09  0.5            1107500        11.56076       12722.327      25444.289      0.19594513   
   1805200   325.74378      1.0067687     -2704691.8      0.093482173    970.00936     -2703721.8      1859.5421      1859.5421      1859.5421      1570.229       3429.771       1570.229       3429.771       1570.229       3429.771       6.4301046e+09  0.5            1107600        11.568882      12312.654      24625.638      0.18811194   
   1805400   325.89285      1.004352      -2704979.4      0.093529305    970.45327     -2704008.9      1859.2297      1859.2297      1859.2297      1570.3852      3429.6148      1570.3852      3429.6148      1570.3852      3429.6148      6.4268643e+09  0.5            1107700        11.577477      11634.606      23269.202      0.18028573   
   1805600   325.96812      1.0021947     -2705269.8      0.093574032    970.67741     -2704299.1      1858.9334      1858.9334      1858.9334      1570.5333      3429.4667      1570.5333      3429.4667      1570.5333      3429.4667      6.4237923e+09  0.5            1107800        11.585462      12523.674      25047.292      0.1724494    
   1805800   326.01991      0.99748015    -2705928        0.093619623    970.83162     -2704957.1      1858.6316      1858.6316      1858.6316      1570.6842      3429.3158      1570.6842      3429.3158      1570.6842      3429.3158      6.420664e+09   0.5            1107900        11.593373      12639.804      25279.532      0.16461183   
   1806000   325.96268      0.99856321    -2706218.4      0.093664458    970.66119     -2705247.7      1858.335       1858.335       1858.335       1570.8325      3429.1675      1570.8325      3429.1675      1570.8325      3429.1675      6.4175906e+09  0.5            1108000        11.601479      12336.603      24673.28       0.15677678   
   1806200   325.94197      1.0004839     -2706509.5      0.093708468    970.59954     -2705538.9      1858.044       1858.044       1858.044       1570.978       3429.022       1570.978       3429.022       1570.978       3429.022       6.4145766e+09  0.5            1108100        11.609835      11967.769      23935.461      0.14894457   
   1806400   326.02919      1.0059418     -2714533.2      0.093767127    970.85925     -2713562.3      1857.6565      1857.6565      1857.6565      1571.1718      3428.8282      1571.1718      3428.8282      1571.1718      3428.8282      6.4105637e+09  0.5            1108200        11.617763      12613.121      25226.321      0.14110647   
   1806600   325.98491      1.0172369     -2714822.3      0.093813663    970.72741     -2713851.6      1857.3493      1857.3493      1857.3493      1571.3254      3428.6746      1571.3254      3428.6746      1571.3254      3428.6746      6.4073838e+09  0.5            1108300        11.626038      12085.102      24170.224      0.13327221   
   1806800   325.83307      0.98729913    -2715132        0.093838884    970.27525     -2714161.7      1857.1829      1857.1829      1857.1829      1571.4086      3428.5914      1571.4086      3428.5914      1571.4086      3428.5914      6.4056617e+09  0.5            1108400        11.634188      12269.555      24539.082      0.12543602   
   1807000   325.69713      1.0102773     -2715415        0.093890629    969.87044     -2714445.1      1856.8416      1856.8416      1856.8416      1571.5792      3428.4208      1571.5792      3428.4208      1571.5792      3428.4208      6.4021314e+09  0.5            1108500        11.64229       12342.645      24685.156      0.11759892   
   1807200   325.61546      0.99392892    -2715716.3      0.09392313     969.62724     -2714746.6      1856.6274      1856.6274      1856.6274      1571.6863      3428.3137      1571.6863      3428.3137      1571.6863      3428.3137      6.399916e+09   0.5            1108600        11.650341      12420.291      24840.91       0.10976098   
   1807400   325.57857      0.99111616    -2716008.7      0.093964192    969.51738     -2715039.1      1856.3569      1856.3569      1856.3569      1571.8215      3428.1785      1571.8215      3428.1785      1571.8215      3428.1785      6.3971193e+09  0.5            1108700        11.658593      12118.856      24237.662      0.10192451   
   1807600   325.6513       1.0016942     -2716291        0.094015578    969.73398     -2715321.2      1856.0187      1856.0187      1856.0187      1571.9907      3428.0093      1571.9907      3428.0093      1571.9907      3428.0093      6.3936228e+09  0.5            1108800        11.666575      12527.534      25054.93       0.094085306  
   1807800   325.76543      1.0008543     -2716578.4      0.094062309    970.07383     -2715608.4      1855.7112      1855.7112      1855.7112      1572.1444      3427.8556      1572.1444      3427.8556      1572.1444      3427.8556      6.3904464e+09  0.5            1108900        11.67468       12338.48       24676.914      0.086246816  
   1808000   325.79835      0.99621458    -2716869.2      0.094106244    970.17185     -2715899        1855.4224      1855.4224      1855.4224      1572.2888      3427.7112      1572.2888      3427.7112      1572.2888      3427.7112      6.387463e+09   0.5            1109000        11.682715      12446.056      24892.124      0.078407499  
   1808200   325.80825      0.99667575    -2717159.1      0.09415101     970.20134     -2716188.9      1855.1283      1855.1283      1855.1283      1572.4359      3427.5641      1572.4359      3427.5641      1572.4359      3427.5641      6.3844259e+09  0.5            1109100        11.690922      12183.916      24367.897      0.070568963  
   1808400   325.74515      1.0051049     -2717445.7      0.094198805    970.01344     -2716475.7      1854.8145      1854.8145      1854.8145      1572.5928      3427.4072      1572.5928      3427.4072      1572.5928      3427.4072      6.3811865e+09  0.5            1109200        11.698788      12713.979      25427.852      0.062728098  
   1808600   325.6682       1.020408      -2717729.3      0.094249119    969.78428     -2716759.5      1854.4844      1854.4844      1854.4844      1572.7578      3427.2422      1572.7578      3427.2422      1572.7578      3427.2422      6.37778e+09    0.5            1109300        11.706801      12479.049      24958.204      0.054887894  
   1808800   325.5828       1.0095315     -2718025.7      0.094285887    969.52999     -2717056.2      1854.2433      1854.2433      1854.2433      1572.8784      3427.1216      1572.8784      3427.1216      1572.8784      3427.1216      6.3752929e+09  0.5            1109400        11.714466      13046.316      26092.642      0.047046059  
   1809000   325.63655      0.97155647    -2725702.3      0.094320651    969.69004     -2724732.6      1854.0154      1854.0154      1854.0154      1572.9923      3427.0077      1572.9923      3427.0077      1572.9923      3427.0077      6.3729431e+09  0.5            1109500        11.722351      12682.697      25365.343      0.039205195  
   1809200   325.75277      0.99711682    -2725978.7      0.094379155    970.03611     -2725008.6      1853.6323      1853.6323      1853.6323      1573.1839      3426.8161      1573.1839      3426.8161      1573.1839      3426.8161      6.3689926e+09  0.5            1109600        11.730812      11818.241      23636.569      0.031365815  
   1809400   325.81778      1.0216865     -2726256.8      0.094435748    970.2297      -2725286.6      1853.2619      1853.2619      1853.2619      1573.369       3426.631       1573.369       3426.631       1573.369       3426.631       6.3651758e+09  0.5            1109700        11.738714      12656.209      25312.441      0.023524481  
   1809600   325.84069      0.96623796    -2733945.2      0.09445951     970.29794     -2732974.9      1853.1065      1853.1065      1853.1065      1573.4467      3426.5533      1573.4467      3426.5533      1573.4467      3426.5533      6.3635747e+09  0.5            1109800        11.746661      12583.49       25166.72       0.015683128  
   1809800   325.7493       1.0084491     -2734218.6      0.094521063    970.0258      -2733248.6      1852.7042      1852.7042      1852.7042      1573.6479      3426.3521      1573.6479      3426.3521      1573.6479      3426.3521      6.3594306e+09  0.5            1109900        11.754499      12758.31       25516.71       0.0078415618 
   1810000   325.656        1.0508998     -2734487.5      0.094585463    969.74796     -2733517.8      1852.2836      1852.2836      1852.2836      1573.8582      3426.1418      1573.8582      3426.1418      1573.8582      3426.1418      6.3551007e+09  0.5            1110000        11.762279      12853.237      25706.439      0            
Loop time of 11.7623 on 4 procs for 300000 steps with 1000 atoms

Performance: 1101.825 ns/day, 0.022 hours/ns, 25505.210 timesteps/s
98.3% CPU use with 4 MPI tasks x no OpenMP threads

MPI task timing breakdown:
Section |  min time  |  avg time  |  max time  |%varavg| %total
---------------------------------------------------------------
Pair    | 1.1883     | 1.4184     | 1.6325     |  14.3 | 12.06
Neigh   | 0.14037    | 0.15745    | 0.17287    |   3.2 |  1.34
Comm    | 3.7006     | 3.9059     | 4.1441     |   8.4 | 33.21
Output  | 0.058116   | 0.062709   | 0.073458   |   2.5 |  0.53
Modify  | 4.9945     | 5.1954     | 5.346      |   5.6 | 44.17
Other   |            | 1.022      |            |       |  8.69

Nlocal:            250 ave         282 max         220 min
Histogram: 1 0 0 1 0 1 0 0 0 1
Nghost:            208 ave         211 max         204 min
Histogram: 1 0 0 0 1 0 0 0 1 1
Neighs:          109.5 ave         142 max          80 min
Histogram: 1 1 0 0 0 0 0 1 0 1

Total # of neighbors = 438
Ave neighs/atom = 0.438
Neighbor list builds = 2476
Dangerous builds = 63

# run_style
run_style verlet

# write restart
write_restart ${write_res}
write_restart ./pgnpmf/37/equpmf2.res
System init for write_restart ...
Generated 0 of 1 mixed pair_coeff terms from geometric mixing rule

Total wall time: 0:00:22
