LAMMPS (23 Jun 2022 - Update 1)
OMP_NUM_THREADS environment is not set. Defaulting to 1 thread. (src/comm.cpp:98)
  using 1 OpenMP thread(s) per MPI task
# Read restart
read_restart ${read_res}
read_restart ./pgnpmf/trial2/37/equpmf71.res
Reading restart file ...
  restart file = 23 Jun 2022, LAMMPS = 23 Jun 2022
  restoring atom style atomic from restart
  orthogonal box = (2148.0321 2148.0321 2148.0321) to (2851.9679 2851.9679 2851.9679)
  1 by 2 by 2 MPI processor grid
  restoring pair style table from restart
  1000 atoms
  read_restart CPU = 0.033 seconds

# Settings

pair_style table spline 9941

pair_coeff 1 1 ./pgnpmf/N20.txt DE_GNP 75.6
pair_coeff 2 2 ./pgnpmf/N100.txt DE_GNP 115.92
WARNING: 3 of 9941 force values in table DE_GNP are inconsistent with -dE/dr.
WARNING:  Should only be flagged at inflection points (src/pair_table.cpp:463)
pair_coeff 1 2 ./pgnpmf/mixed_potential.txt DE_GNP 95.66
WARNING: 1562 of 9941 force values in table DE_GNP are inconsistent with -dE/dr.
WARNING:  Should only be flagged at inflection points (src/pair_table.cpp:463)

#Neigh_list Calc Frequency

neigh_modify delay 0 every 1 check yes

# computes
compute vor all voronoi/atom

# Saving Frequency (50 frames)
variable ts_save equal ${steps_equ}
variable ts_save equal 5000

# Dump
dump 1 all custom 100000 ./pgnpmf/${folder}/voronoi/voronoi_${usic}_${trial}.custom type x y z ix iy iz c_vor[1] c_vor[2]
dump 1 all custom 100000 ./pgnpmf/trial2/37/voronoi/voronoi_${usic}_${trial}.custom type x y z ix iy iz c_vor[1] c_vor[2]
dump 1 all custom 100000 ./pgnpmf/trial2/37/voronoi/voronoi_1_${trial}.custom type x y z ix iy iz c_vor[1] c_vor[2]
dump 1 all custom 100000 ./pgnpmf/trial2/37/voronoi/voronoi_1_1.custom type x y z ix iy iz c_vor[1] c_vor[2]
dump_modify 1 first no sort id
#dump 2 all cfg 50000 ./pgnpmf/${folder}/equilibration/trajectory/dumpgen.tens_*.cfg mass type xs ys zs fx fy fz
#dump_modify 2 element N20 N100

# thermo_style
thermo_style custom step temp press pe density ke etotal lx ly lz xlo xhi ylo yhi zlo zhi vol dt time cpu tpcpu spcpu cpuremain

# run info
timestep ${ts}
timestep 0.5
thermo 200

# fix

fix 1 all momentum 1000 linear 1 1 1 angular
variable T equal ${temp}
variable T equal 300
fix 2 all nvt temp ${T} ${T} 100.0
fix 2 all nvt temp 300 ${T} 100.0
fix 2 all nvt temp 300 300 100.0

run 100000
Generated 0 of 1 mixed pair_coeff terms from geometric mixing rule
Unused restart file global fix info:
  fix style: npt, fix ID: 5
Neighbor list info ...
  update every 1 steps, delay 0 steps, check yes
  max neighbors/atom: 2000, page size: 100000
  master list distance cutoff = 117.92
  ghost atom cutoff = 117.92
  binsize = 58.96, bins = 12 12 12
  1 neighbor lists, perpetual/occasional/extra = 1 0 0
  (1) pair table, perpetual
      attributes: half, newton on
      pair build: half/bin/atomonly/newton
      stencil: half/bin/3d
      bin: standard
Per MPI rank memory allocation (min/avg/max) = 3.097 | 3.098 | 3.098 Mbytes
   Step          Temp          Press          PotEng        Density         KinEng         TotEng           Lx             Ly             Lz            Xlo            Xhi            Ylo            Yhi            Zlo            Zhi           Volume           Dt            Time           CPU           T/CPU          S/CPU         CPULeft    
  50110000   305.71443      0.14079117    -44155889       1.723248       910.36537     -44154979       703.93574      703.93574      703.93574      2148.0321      2851.9679      2148.0321      2851.9679      2148.0321      2851.9679      3.4881813e+08  0.5            13780000       0              0              0              0            
  50110200   400.60381     -0.58615241    -44156274       1.723248       1192.9297     -44155081       703.93574      703.93574      703.93574      2148.0321      2851.9679      2148.0321      2851.9679      2148.0321      2851.9679      3.4881813e+08  0.5            13780100       0.016171496    6183.3279      12365.759      8.0712646    
  50110400   448.11969     -1.5037242     -44158590       1.723248       1334.4239     -44157256       703.93574      703.93574      703.93574      2148.0321      2851.9679      2148.0321      2851.9679      2148.0321      2851.9679      3.4881813e+08  0.5            13780200       0.031079382    6707.9978      13416.144      7.7394484    
  50110600   456.6117      -2.2674318     -44159023       1.723248       1359.7117     -44157663       703.93574      703.93574      703.93574      2148.0321      2851.9679      2148.0321      2851.9679      2148.0321      2851.9679      3.4881813e+08  0.5            13780300       0.045390461    6987.6421      13975.363      7.5200962    
  50110800   447.50604     -3.0413921     -44159454       1.723248       1332.5966     -44158122       703.93574      703.93574      703.93574      2148.0321      2851.9679      2148.0321      2851.9679      2148.0321      2851.9679      3.4881813e+08  0.5            13780400       0.059687683    6994.4069      13988.974      7.4015312    
  50111000   431.08129     -3.4413329     -44152501       1.723248       1283.6865     -44151217       703.93574      703.93574      703.93574      2148.0321      2851.9679      2148.0321      2851.9679      2148.0321      2851.9679      3.4881813e+08  0.5            13780500       0.073983971    6994.8276      13989.66       7.3246189    
  50111200   417.88888     -4.2239179     -44152914       1.723248       1244.4017     -44151669       703.93574      703.93574      703.93574      2148.0321      2851.9679      2148.0321      2851.9679      2148.0321      2851.9679      3.4881813e+08  0.5            13780600       0.088219852    7024.49        14048.897      7.263608     
  50111400   407.21786     -5.034796      -44153320       1.723248       1212.6253     -44152107       703.93574      703.93574      703.93574      2148.0321      2851.9679      2148.0321      2851.9679      2148.0321      2851.9679      3.4881813e+08  0.5            13780700       0.10246292     7020.9726      14042.023      7.2164598    
  50111600   399.0091      -5.8889138     -44153721       1.723248       1188.181      -44152533       703.93574      703.93574      703.93574      2148.0321      2851.9679      2148.0321      2851.9679      2148.0321      2851.9679      3.4881813e+08  0.5            13780800       0.11671579     7016.1332      14032.251      7.178147     
  50111800   392.8674      -6.6340643     -44152222       1.723248       1169.892      -44151053       703.93574      703.93574      703.93574      2148.0321      2851.9679      2148.0321      2851.9679      2148.0321      2851.9679      3.4881813e+08  0.5            13780900       0.13095799     7021.4177      14042.88       7.1445921    
  50112000   386.44218     -7.3133318     -44145607       1.723248       1150.7588     -44144456       703.93574      703.93574      703.93574      2148.0321      2851.9679      2148.0321      2851.9679      2148.0321      2851.9679      3.4881813e+08  0.5            13781000       0.14520255     7020.2125      14040.398      7.1150216    
  50112200   383.46477     -8.2440502     -44145996       1.723248       1141.8926     -44144854       703.93574      703.93574      703.93574      2148.0321      2851.9679      2148.0321      2851.9679      2148.0321      2851.9679      3.4881813e+08  0.5            13781100       0.15942618     7030.5744      14061.14       7.0873081    
  50112400   381.30626     -9.1387257     -44146384       1.723248       1135.4649     -44145248       703.93574      703.93574      703.93574      2148.0321      2851.9679      2148.0321      2851.9679      2148.0321      2851.9679      3.4881813e+08  0.5            13781200       0.173654       7028.4579      14056.886      7.0620124    
  50112600   379.49871     -9.9811866     -44146771       1.723248       1130.0824     -44145641       703.93574      703.93574      703.93574      2148.0321      2851.9679      2148.0321      2851.9679      2148.0321      2851.9679      3.4881813e+08  0.5            13781300       0.18789265     7023.1481      14046.338      7.0388211    
  50112800   377.87522     -10.776781     -44147158       1.723248       1125.2479     -44146032       703.93574      703.93574      703.93574      2148.0321      2851.9679      2148.0321      2851.9679      2148.0321      2851.9679      3.4881813e+08  0.5            13781400       0.20215284     7012.5588      14025.135      7.0176569    
  50113000   374.40975     -11.557141     -44147543       1.723248       1114.9283     -44146428       703.93574      703.93574      703.93574      2148.0321      2851.9679      2148.0321      2851.9679      2148.0321      2851.9679      3.4881813e+08  0.5            13781500       0.21660188     6920.8295      13841.617      7.0035272    
  50113200   373.27186     -12.434413     -44148292       1.723248       1111.5399     -44147180       703.93574      703.93574      703.93574      2148.0321      2851.9679      2148.0321      2851.9679      2148.0321      2851.9679      3.4881813e+08  0.5            13781600       0.23082897     7028.8833      14057.81       6.9826338    
  50113400   372.17322     -13.17224      -44148670       1.723248       1108.2683     -44147562       703.93574      703.93574      703.93574      2148.0321      2851.9679      2148.0321      2851.9679      2148.0321      2851.9679      3.4881813e+08  0.5            13781700       0.24505937     7027.2143      14054.423      6.9626231    
  50113600   370.8824      -13.863781     -44149047       1.723248       1104.4245     -44147943       703.93574      703.93574      703.93574      2148.0321      2851.9679      2148.0321      2851.9679      2148.0321      2851.9679      3.4881813e+08  0.5            13781800       0.2592902      7026.9807      14053.93       6.9432683    
  50113800   369.52365     -14.385307     -44149054       1.723248       1100.3783     -44147953       703.93574      703.93574      703.93574      2148.0321      2851.9679      2148.0321      2851.9679      2148.0321      2851.9679      3.4881813e+08  0.5            13781900       0.27352521     7024.944       14049.861      6.9245555    
  50114000   366.27202     -14.969542     -44149427       1.723248       1090.6955     -44148336       703.93574      703.93574      703.93574      2148.0321      2851.9679      2148.0321      2851.9679      2148.0321      2851.9679      3.4881813e+08  0.5            13782000       0.28778672     7011.8891      14023.809      6.9069269    
  50114200   365.55356     -15.514721     -44149795       1.723248       1088.5561     -44148706       703.93574      703.93574      703.93574      2148.0321      2851.9679      2148.0321      2851.9679      2148.0321      2851.9679      3.4881813e+08  0.5            13782100       0.30203076     7020.455       14040.942      6.8892212    
  50114400   365.07712     -16.072099     -44150162       1.723248       1087.1373     -44149075       703.93574      703.93574      703.93574      2148.0321      2851.9679      2148.0321      2851.9679      2148.0321      2851.9679      3.4881813e+08  0.5            13782200       0.31629047     7012.7535      14025.507      6.8721707    
  50114600   364.53864     -16.678125     -44150529       1.723248       1085.5338     -44149444       703.93574      703.93574      703.93574      2148.0321      2851.9679      2148.0321      2851.9679      2148.0321      2851.9679      3.4881813e+08  0.5            13782300       0.33054581     7014.9422      14029.866      6.8552725    
  50114800   363.97865     -17.352871     -44150896       1.723248       1083.8663     -44149812       703.93574      703.93574      703.93574      2148.0321      2851.9679      2148.0321      2851.9679      2148.0321      2851.9679      3.4881813e+08  0.5            13782400       0.34477526     7027.6755      14055.362      6.8380807    
  50115000   361.47232     -18.086368     -44151262       1.723248       1076.4028     -44150185       703.93574      703.93574      703.93574      2148.0321      2851.9679      2148.0321      2851.9679      2148.0321      2851.9679      3.4881813e+08  0.5            13782500       0.35901594     7022.1223      14044.231      6.8213399    
  50115200   361.43905     -18.860289     -44151624       1.723248       1076.3038     -44150548       703.93574      703.93574      703.93574      2148.0321      2851.9679      2148.0321      2851.9679      2148.0321      2851.9679      3.4881813e+08  0.5            13782600       0.37324608     7027.3585      14054.716      6.8045977    
  50115400   361.52774     -19.671244     -44151987       1.723248       1076.5679     -44150910       703.93574      703.93574      703.93574      2148.0321      2851.9679      2148.0321      2851.9679      2148.0321      2851.9679      3.4881813e+08  0.5            13782700       0.38746541     7032.6722      14065.347      6.787854     
  50115600   361.45443     -20.883256     -44159728       1.723248       1076.3496     -44158652       703.93574      703.93574      703.93574      2148.0321      2851.9679      2148.0321      2851.9679      2148.0321      2851.9679      3.4881813e+08  0.5            13782800       0.4016769      7036.5594      14073.091      6.7711573    
  50115800   361.28826     -21.705157     -44160092       1.723248       1075.8547     -44159016       703.93574      703.93574      703.93574      2148.0321      2851.9679      2148.0321      2851.9679      2148.0321      2851.9679      3.4881813e+08  0.5            13782900       0.41594167     7010.2792      14020.585      6.7554972    
  50116000   359.07967     -22.500295     -44160456       1.723248       1069.2779     -44159386       703.93574      703.93574      703.93574      2148.0321      2851.9679      2148.0321      2851.9679      2148.0321      2851.9679      3.4881813e+08  0.5            13783000       0.43019917     7013.8651      14027.758      6.7398162    
  50116200   359.28692     -23.370152     -44161184       1.723248       1069.8951     -44160115       703.93574      703.93574      703.93574      2148.0321      2851.9679      2148.0321      2851.9679      2148.0321      2851.9679      3.4881813e+08  0.5            13783100       0.44443573     7024.1712      14048.298      6.7239107    
  50116400   359.63506     -24.370936     -44168555       1.723248       1070.9318     -44167484       703.93574      703.93574      703.93574      2148.0321      2851.9679      2148.0321      2851.9679      2148.0321      2851.9679      3.4881813e+08  0.5            13783200       0.45863794     7041.1383      14082.319      6.707608     
  50116600   359.60458     -25.09187      -44168917       1.723248       1070.841      -44167846       703.93574      703.93574      703.93574      2148.0321      2851.9679      2148.0321      2851.9679      2148.0321      2851.9679      3.4881813e+08  0.5            13783300       0.47284826     7037.1615      14074.303      6.6915457    
  50116800   359.29562     -25.807603     -44169278       1.723248       1069.921      -44168208       703.93574      703.93574      703.93574      2148.0321      2851.9679      2148.0321      2851.9679      2148.0321      2851.9679      3.4881813e+08  0.5            13783400       0.48706268     7035.0881      14070.189      6.6756498    
  50117000   356.89907     -26.525768     -44169638       1.723248       1062.7845     -44168575       703.93574      703.93574      703.93574      2148.0321      2851.9679      2148.0321      2851.9679      2148.0321      2851.9679      3.4881813e+08  0.5            13783500       0.50131954     7014.1761      14028.334      6.6604137    
  50117200   356.88767     -27.241077     -44169994       1.723248       1062.7505     -44168931       703.93574      703.93574      703.93574      2148.0321      2851.9679      2148.0321      2851.9679      2148.0321      2851.9679      3.4881813e+08  0.5            13783600       0.51559917     7002.9777      14005.982      6.6455249    
  50117400   356.9185      -27.963315     -44170350       1.723248       1062.8423     -44169287       703.93574      703.93574      703.93574      2148.0321      2851.9679      2148.0321      2851.9679      2148.0321      2851.9679      3.4881813e+08  0.5            13783700       0.52985436     7015.016       14029.971      6.6303635    
  50117600   356.69689     -28.811685     -44171074       1.723248       1062.1824     -44170011       703.93574      703.93574      703.93574      2148.0321      2851.9679      2148.0321      2851.9679      2148.0321      2851.9679      3.4881813e+08  0.5            13783800       0.5440845      7027.2686      14054.552      6.6149472    
  50117800   356.37904     -30.103236     -44180701       1.723248       1061.2359     -44179640       703.93574      703.93574      703.93574      2148.0321      2851.9679      2148.0321      2851.9679      2148.0321      2851.9679      3.4881813e+08  0.5            13783900       0.55830915     7030.0593      14060.163      6.5995238    
  50118000   354.07848     -30.842945     -44181055       1.723248       1054.3852     -44180001       703.93574      703.93574      703.93574      2148.0321      2851.9679      2148.0321      2851.9679      2148.0321      2851.9679      3.4881813e+08  0.5            13784000       0.57256669     7013.8563      14027.717      6.5845394    
  50118200   354.2397      -31.552201     -44181405       1.723248       1054.8654     -44180350       703.93574      703.93574      703.93574      2148.0321      2851.9679      2148.0321      2851.9679      2148.0321      2851.9679      3.4881813e+08  0.5            13784100       0.58678951     7030.9481      14061.86       6.5692027    
  50118400   354.47875     -32.248275     -44181756       1.723248       1055.5772     -44180700       703.93574      703.93574      703.93574      2148.0321      2851.9679      2148.0321      2851.9679      2148.0321      2851.9679      3.4881813e+08  0.5            13784200       0.60100979     7032.2019      14064.422      6.5538901    
  50118600   354.45291     -32.955323     -44182106       1.723248       1055.5002     -44181051       703.93574      703.93574      703.93574      2148.0321      2851.9679      2148.0321      2851.9679      2148.0321      2851.9679      3.4881813e+08  0.5            13784300       0.61526172     7016.6147      14033.232      6.5389649    
  50118800   354.2878      -33.688198     -44182456       1.723248       1055.0086     -44181401       703.93574      703.93574      703.93574      2148.0321      2851.9679      2148.0321      2851.9679      2148.0321      2851.9679      3.4881813e+08  0.5            13784400       0.62949699     7024.8048      14049.614      6.5238975    
  50119000   352.08828     -34.449098     -44182806       1.723248       1048.4588     -44181758       703.93574      703.93574      703.93574      2148.0321      2851.9679      2148.0321      2851.9679      2148.0321      2851.9679      3.4881813e+08  0.5            13784500       0.6437398      7021.0923      14042.204      6.5089438    
  50119200   352.40485     -35.997937     -44197908       1.723248       1049.4015     -44196859       703.93574      703.93574      703.93574      2148.0321      2851.9679      2148.0321      2851.9679      2148.0321      2851.9679      3.4881813e+08  0.5            13784600       0.65797051     7027.0553      14054.106      6.4939012    
  50119400   352.80113     -36.400854     -44190877       1.723248       1050.5815     -44189827       703.93574      703.93574      703.93574      2148.0321      2851.9679      2148.0321      2851.9679      2148.0321      2851.9679      3.4881813e+08  0.5            13784700       0.67220854     7023.4278      14046.849      6.4789648    
  50119600   352.85559     -37.197487     -44191224       1.723248       1050.7437     -44190173       703.93574      703.93574      703.93574      2148.0321      2851.9679      2148.0321      2851.9679      2148.0321      2851.9679      3.4881813e+08  0.5            13784800       0.68644593     7023.7746      14047.527      6.4640509    
  50119800   352.73422     -38.013072     -44191570       1.723248       1050.3823     -44190520       703.93574      703.93574      703.93574      2148.0321      2851.9679      2148.0321      2851.9679      2148.0321      2851.9679      3.4881813e+08  0.5            13784900       0.70067253     7029.0869      14058.177      6.4490647    
  50120000   350.70971     -38.855154     -44191916       1.723248       1044.3536     -44190872       703.93574      703.93574      703.93574      2148.0321      2851.9679      2148.0321      2851.9679      2148.0321      2851.9679      3.4881813e+08  0.5            13785000       0.71490314     7027.0889      14054.203      6.4341453    
  50120200   351.08533     -39.704553     -44192259       1.723248       1045.4722     -44191214       703.93574      703.93574      703.93574      2148.0321      2851.9679      2148.0321      2851.9679      2148.0321      2851.9679      3.4881813e+08  0.5            13785100       0.72915104     7018.5787      14037.144      6.4194056    
  50120400   351.51521     -40.546453     -44192603       1.723248       1046.7523     -44191556       703.93574      703.93574      703.93574      2148.0321      2851.9679      2148.0321      2851.9679      2148.0321      2851.9679      3.4881813e+08  0.5            13785200       0.74338498     7025.4804      14050.934      6.4045641    
  50120600   351.62397     -41.343818     -44192947       1.723248       1047.0761     -44191900       703.93574      703.93574      703.93574      2148.0321      2851.9679      2148.0321      2851.9679      2148.0321      2851.9679      3.4881813e+08  0.5            13785300       0.75761886     7025.5007      14051.018      6.3897443    
  50120800   351.54242     -42.07691      -44193290       1.723248       1046.8333     -44192244       703.93574      703.93574      703.93574      2148.0321      2851.9679      2148.0321      2851.9679      2148.0321      2851.9679      3.4881813e+08  0.5            13785400       0.77188444     7009.866       14019.677      6.37521      
  50121000   349.57687     -42.756122     -44193634       1.723248       1040.9802     -44192593       703.93574      703.93574      703.93574      2148.0321      2851.9679      2148.0321      2851.9679      2148.0321      2851.9679      3.4881813e+08  0.5            13785500       0.78637031     6903.2279      13806.5        6.3624685    
  50121200   349.80584     -43.401925     -44193973       1.723248       1041.6621     -44192931       703.93574      703.93574      703.93574      2148.0321      2851.9679      2148.0321      2851.9679      2148.0321      2851.9679      3.4881813e+08  0.5            13785600       0.80058171     7036.6312      14073.255      6.3474853    
  50121400   350.03401     -44.047582     -44194312       1.723248       1042.3415     -44193270       703.93574      703.93574      703.93574      2148.0321      2851.9679      2148.0321      2851.9679      2148.0321      2851.9679      3.4881813e+08  0.5            13785700       0.81567094     6627.2478      13254.501      6.3393529    
  50121600   349.9596      -44.716786     -44194651       1.723248       1042.1199     -44193609       703.93574      703.93574      703.93574      2148.0321      2851.9679      2148.0321      2851.9679      2148.0321      2851.9679      3.4881813e+08  0.5            13785800       0.82993297     7011.6531      14023.294      6.3246767    
  50121800   349.76772     -45.41618      -44194989       1.723248       1041.5485     -44193948       703.93574      703.93574      703.93574      2148.0321      2851.9679      2148.0321      2851.9679      2148.0321      2851.9679      3.4881813e+08  0.5            13785900       0.8441642      7026.7852      14053.582      6.3097843    
  50122000   347.88558     -46.139144     -44195327       1.723248       1035.9439     -44194291       703.93574      703.93574      703.93574      2148.0321      2851.9679      2148.0321      2851.9679      2148.0321      2851.9679      3.4881813e+08  0.5            13786000       0.85840619     7021.4902      14042.988      6.294993     
  50122200   348.10519     -46.87401      -44195661       1.723248       1036.5978     -44194624       703.93574      703.93574      703.93574      2148.0321      2851.9679      2148.0321      2851.9679      2148.0321      2851.9679      3.4881813e+08  0.5            13786100       0.87296531     6868.5305      13737.029      6.2825027    
  50122400   348.34463     -47.626885     -44195995       1.723248       1037.3108     -44194958       703.93574      703.93574      703.93574      2148.0321      2851.9679      2148.0321      2851.9679      2148.0321      2851.9679      3.4881813e+08  0.5            13786200       0.88718556     7032.2504      14064.543      6.2675505    
  50122600   348.29152     -48.375071     -44196328       1.723248       1037.1527     -44195291       703.93574      703.93574      703.93574      2148.0321      2851.9679      2148.0321      2851.9679      2148.0321      2851.9679      3.4881813e+08  0.5            13786300       0.90139213     7038.9943      14077.987      6.2525271    
  50122800   348.1228      -49.093404     -44196661       1.723248       1036.6503     -44195624       703.93574      703.93574      703.93574      2148.0321      2851.9679      2148.0321      2851.9679      2148.0321      2851.9679      3.4881813e+08  0.5            13786400       0.91566944     7004.1244      14008.248      6.238011     
  50123000   346.28978     -49.780915     -44196993       1.723248       1031.1918     -44195962       703.93574      703.93574      703.93574      2148.0321      2851.9679      2148.0321      2851.9679      2148.0321      2851.9679      3.4881813e+08  0.5            13786500       0.92990198     7026.1478      14052.248      6.2232034    
  50123200   346.60352     -50.450977     -44197323       1.723248       1032.1261     -44196291       703.93574      703.93574      703.93574      2148.0321      2851.9679      2148.0321      2851.9679      2148.0321      2851.9679      3.4881813e+08  0.5            13786600       0.94410388     7041.3079      14082.696      6.2082106    
  50123400   347.06307     -50.748306     -44190275       1.723248       1033.4946     -44189241       703.93574      703.93574      703.93574      2148.0321      2851.9679      2148.0321      2851.9679      2148.0321      2851.9679      3.4881813e+08  0.5            13786700       0.95830265     7042.8695      14085.708      6.1932219    
  50123600   347.24756     -51.456397     -44190605       1.723248       1034.0439     -44189571       703.93574      703.93574      703.93574      2148.0321      2851.9679      2148.0321      2851.9679      2148.0321      2851.9679      3.4881813e+08  0.5            13786800       0.97249319     7046.9641      14093.884      6.1782043    
  50123800   347.33986     -51.81672      -44183558       1.723248       1034.3188     -44182523       703.93574      703.93574      703.93574      2148.0321      2851.9679      2148.0321      2851.9679      2148.0321      2851.9679      3.4881813e+08  0.5            13786900       0.98668137     7048.1263      14096.285      6.1631954    
  50124000   345.80557     -52.59718      -44183889       1.723248       1029.7499     -44182859       703.93574      703.93574      703.93574      2148.0321      2851.9679      2148.0321      2851.9679      2148.0321      2851.9679      3.4881813e+08  0.5            13787000       1.0008757      7045.0651      14090.162      6.1482478    
  50124200   346.30099     -53.399968     -44184217       1.723248       1031.2252     -44183186       703.93574      703.93574      703.93574      2148.0321      2851.9679      2148.0321      2851.9679      2148.0321      2851.9679      3.4881813e+08  0.5            13787100       1.0151052      7027.6188      14055.183      6.133535     
  50124400   346.78897     -54.205777     -44184546       1.723248       1032.6783     -44183513       703.93574      703.93574      703.93574      2148.0321      2851.9679      2148.0321      2851.9679      2148.0321      2851.9679      3.4881813e+08  0.5            13787200       1.0293003      7044.6894      14089.412      6.1186299    
  50124600   346.91912     -54.992425     -44184875       1.723248       1033.0659     -44183842       703.93574      703.93574      703.93574      2148.0321      2851.9679      2148.0321      2851.9679      2148.0321      2851.9679      3.4881813e+08  0.5            13787300       1.0435344      7025.3941      14050.714      6.103973     
  50124800   346.83974     -55.752906     -44185204       1.723248       1032.8295     -44184171       703.93574      703.93574      703.93574      2148.0321      2851.9679      2148.0321      2851.9679      2148.0321      2851.9679      3.4881813e+08  0.5            13787400       1.0577522      7033.4835      14066.98       6.0892332    
  50125000   345.12285     -56.500236     -44185531       1.723248       1027.7169     -44184503       703.93574      703.93574      703.93574      2148.0321      2851.9679      2148.0321      2851.9679      2148.0321      2851.9679      3.4881813e+08  0.5            13787500       1.0719846      7026.1843      14052.427      6.0745902    
  50125200   345.3112      -57.252249     -44185856       1.723248       1028.2778     -44184827       703.93574      703.93574      703.93574      2148.0321      2851.9679      2148.0321      2851.9679      2148.0321      2851.9679      3.4881813e+08  0.5            13787600       1.0862033      7032.97        14065.917      6.0598822    
  50125400   345.5501      -58.037838     -44186180       1.723248       1028.9892     -44185151       703.93574      703.93574      703.93574      2148.0321      2851.9679      2148.0321      2851.9679      2148.0321      2851.9679      3.4881813e+08  0.5            13787700       1.1004243      7031.9023      14063.822      6.0451983    
  50125600   345.55896     -58.881774     -44186504       1.723248       1029.0156     -44185475       703.93574      703.93574      703.93574      2148.0321      2851.9679      2148.0321      2851.9679      2148.0321      2851.9679      3.4881813e+08  0.5            13787800       1.1146477      7030.6559      14061.305      6.03054      
  50125800   345.50116     -59.794473     -44186827       1.723248       1028.8434     -44185798       703.93574      703.93574      703.93574      2148.0321      2851.9679      2148.0321      2851.9679      2148.0321      2851.9679      3.4881813e+08  0.5            13787900       1.1288353      7048.4423      14096.891      6.0157017    
  50126000   343.95439     -60.748314     -44187150       1.723248       1024.2374     -44186126       703.93574      703.93574      703.93574      2148.0321      2851.9679      2148.0321      2851.9679      2148.0321      2851.9679      3.4881813e+08  0.5            13788000       1.1430217      7048.9351      14097.887      6.000874     
  50126200   344.34444     -61.673062     -44187471       1.723248       1025.3989     -44186446       703.93574      703.93574      703.93574      2148.0321      2851.9679      2148.0321      2851.9679      2148.0321      2851.9679      3.4881813e+08  0.5            13788100       1.1572112      7047.5014      14095.007      5.9860773    
  50126400   344.79368     -62.531183     -44187793       1.723248       1026.7367     -44186766       703.93574      703.93574      703.93574      2148.0321      2851.9679      2148.0321      2851.9679      2148.0321      2851.9679      3.4881813e+08  0.5            13788200       1.1714017      7046.9929      14093.95       5.9713012    
  50126600   344.99289     -63.465915     -44190009       1.723248       1027.3299     -44188982       703.93574      703.93574      703.93574      2148.0321      2851.9679      2148.0321      2851.9679      2148.0321      2851.9679      3.4881813e+08  0.5            13788300       1.1855891      7048.4964      14097.027      5.956523     
  50126800   345.19691     -64.070622     -44189964       1.723248       1027.9375     -44188936       703.93574      703.93574      703.93574      2148.0321      2851.9679      2148.0321      2851.9679      2148.0321      2851.9679      3.4881813e+08  0.5            13788400       1.1997656      7053.9322      14107.851      5.9417053    
  50127000   343.73253     -64.395899     -44182908       1.723248       1023.5768     -44181884       703.93574      703.93574      703.93574      2148.0321      2851.9679      2148.0321      2851.9679      2148.0321      2851.9679      3.4881813e+08  0.5            13788500       1.214005       7022.7308      14045.489      5.9272102    
  50127200   344.15648     -65.138461     -44183228       1.723248       1024.8392     -44182203       703.93574      703.93574      703.93574      2148.0321      2851.9679      2148.0321      2851.9679      2148.0321      2851.9679      3.4881813e+08  0.5            13788600       1.2282032      7043.1711      14086.31       5.912522     
  50127400   344.62427     -65.954518     -44183548       1.723248       1026.2322     -44182522       703.93574      703.93574      703.93574      2148.0321      2851.9679      2148.0321      2851.9679      2148.0321      2851.9679      3.4881813e+08  0.5            13788700       1.2424086      7039.5443      14079.095      5.8978797    
  50127600   344.85323     -66.434462     -44176491       1.723248       1026.914      -44175464       703.93574      703.93574      703.93574      2148.0321      2851.9679      2148.0321      2851.9679      2148.0321      2851.9679      3.4881813e+08  0.5            13788800       1.2565756      7058.6888      14117.349      5.8830675    
  50127800   344.978       -67.297051     -44176812       1.723248       1027.2856     -44175785       703.93574      703.93574      703.93574      2148.0321      2851.9679      2148.0321      2851.9679      2148.0321      2851.9679      3.4881813e+08  0.5            13788900       1.2707677      7046.1631      14092.346      5.8683854    
  50128000   343.42468     -68.104958     -44177133       1.723248       1022.6601     -44176110       703.93574      703.93574      703.93574      2148.0321      2851.9679      2148.0321      2851.9679      2148.0321      2851.9679      3.4881813e+08  0.5            13789000       1.284965       7043.5923      14087.199      5.853738     
  50128200   343.73423     -68.826167     -44177451       1.723248       1023.5818     -44176427       703.93574      703.93574      703.93574      2148.0321      2851.9679      2148.0321      2851.9679      2148.0321      2851.9679      3.4881813e+08  0.5            13789100       1.2991423      7053.5521      14107.101      5.8390102    
  50128400   344.03915     -69.474183     -44177769       1.723248       1024.4898     -44176744       703.93574      703.93574      703.93574      2148.0321      2851.9679      2148.0321      2851.9679      2148.0321      2851.9679      3.4881813e+08  0.5            13789200       1.3133765      7025.3215      14050.673      5.8245474    
  50128600   344.1194      -69.678799     -44170708       1.723248       1024.7288     -44169684       703.93574      703.93574      703.93574      2148.0321      2851.9679      2148.0321      2851.9679      2148.0321      2851.9679      3.4881813e+08  0.5            13789300       1.3275681      7046.4462      14092.805      5.8099029    
  50128800   344.08383     -70.22828      -44171026       1.723248       1024.6229     -44170001       703.93574      703.93574      703.93574      2148.0321      2851.9679      2148.0321      2851.9679      2148.0321      2851.9679      3.4881813e+08  0.5            13789400       1.3417401      7056.1546      14112.362      5.7951834    
  50129000   342.54085     -70.741423     -44171342       1.723248       1020.0282     -44170322       703.93574      703.93574      703.93574      2148.0321      2851.9679      2148.0321      2851.9679      2148.0321      2851.9679      3.4881813e+08  0.5            13789500       1.355926       7049.2442      14098.503      5.7805344    
  50129200   342.9022      -71.209733     -44171657       1.723248       1021.1042     -44170636       703.93574      703.93574      703.93574      2148.0321      2851.9679      2148.0321      2851.9679      2148.0321      2851.9679      3.4881813e+08  0.5            13789600       1.370087       7061.6332      14123.245      5.7657909    
  50129400   343.30862     -71.56933      -44171603       1.723248       1022.3144     -44170581       703.93574      703.93574      703.93574      2148.0321      2851.9679      2148.0321      2851.9679      2148.0321      2851.9679      3.4881813e+08  0.5            13789700       1.3842661      7052.6363      14105.286      5.7511339    
  50129600   343.41652     -72.085985     -44171917       1.723248       1022.6358     -44170895       703.93574      703.93574      703.93574      2148.0321      2851.9679      2148.0321      2851.9679      2148.0321      2851.9679      3.4881813e+08  0.5            13789800       1.3984343      7058.0566      14116.097      5.7364423    
  50129800   343.41922     -72.929737     -44179241       1.723248       1022.6438     -44178218       703.93574      703.93574      703.93574      2148.0321      2851.9679      2148.0321      2851.9679      2148.0321      2851.9679      3.4881813e+08  0.5            13789900       1.4126265      7046.1304      14092.263      5.7218585    
  50130000   341.85957     -73.571759     -44179555       1.723248       1017.9994     -44178537       703.93574      703.93574      703.93574      2148.0321      2851.9679      2148.0321      2851.9679      2148.0321      2851.9679      3.4881813e+08  0.5            13790000       1.4267961      7057.3782      14114.767      5.7071918    
  50130200   342.22635     -74.284122     -44179866       1.723248       1019.0916     -44178847       703.93574      703.93574      703.93574      2148.0321      2851.9679      2148.0321      2851.9679      2148.0321      2851.9679      3.4881813e+08  0.5            13790100       1.4409631      7058.6415      14117.273      5.692525     
  50130400   342.67325     -75.045339     -44180177       1.723248       1020.4224     -44179157       703.93574      703.93574      703.93574      2148.0321      2851.9679      2148.0321      2851.9679      2148.0321      2851.9679      3.4881813e+08  0.5            13790200       1.4551362      7055.6384      14111.283      5.6778915    
  50130600   342.8399      -75.804964     -44180489       1.723248       1020.9187     -44179468       703.93574      703.93574      703.93574      2148.0321      2851.9679      2148.0321      2851.9679      2148.0321      2851.9679      3.4881813e+08  0.5            13790300       1.4693014      7059.5409      14119.099      5.6632368    
  50130800   342.83806     -76.51743      -44180800       1.723248       1020.9132     -44179779       703.93574      703.93574      703.93574      2148.0321      2851.9679      2148.0321      2851.9679      2148.0321      2851.9679      3.4881813e+08  0.5            13790400       1.4834844      7050.702       14101.328      5.6486593    
  50131000   341.30763     -77.160938     -44181111       1.723248       1016.3559     -44180095       703.93574      703.93574      703.93574      2148.0321      2851.9679      2148.0321      2851.9679      2148.0321      2851.9679      3.4881813e+08  0.5            13790500       1.4979435      6916.0253      13832.111      5.6351281    
  50131200   341.59627     -77.733024     -44181419       1.723248       1017.2154     -44180402       703.93574      703.93574      703.93574      2148.0321      2851.9679      2148.0321      2851.9679      2148.0321      2851.9679      3.4881813e+08  0.5            13790600       1.5122045      7012.158       14024.23       5.6208431    
  50131400   341.95544     -78.260181     -44181727       1.723248       1018.2849     -44180709       703.93574      703.93574      703.93574      2148.0321      2851.9679      2148.0321      2851.9679      2148.0321      2851.9679      3.4881813e+08  0.5            13790700       1.5264292      7030.0119      14060.069      5.6064245    
  50131600   342.07048     -78.771536     -44182035       1.723248       1018.6275     -44181017       703.93574      703.93574      703.93574      2148.0321      2851.9679      2148.0321      2851.9679      2148.0321      2851.9679      3.4881813e+08  0.5            13790800       1.5406347      7039.5344      14079.126      5.59194      
  50131800   342.09155     -79.168128     -44181975       1.723248       1018.6902     -44180956       703.93574      703.93574      703.93574      2148.0321      2851.9679      2148.0321      2851.9679      2148.0321      2851.9679      3.4881813e+08  0.5            13790900       1.554851       7034.1796      14068.322      5.5774998    
  50132000   340.54329     -79.698397     -44182283       1.723248       1014.0798     -44181269       703.93574      703.93574      703.93574      2148.0321      2851.9679      2148.0321      2851.9679      2148.0321      2851.9679      3.4881813e+08  0.5            13791000       1.5690512      7042.136       14084.229      5.5630067    
  50132200   340.90112     -80.280559     -44182588       1.723248       1015.1453     -44181573       703.93574      703.93574      703.93574      2148.0321      2851.9679      2148.0321      2851.9679      2148.0321      2851.9679      3.4881813e+08  0.5            13791100       1.5832367      7049.4609      14098.962      5.5484669    
  50132400   341.35907     -80.927538     -44182893       1.723248       1016.509      -44181876       703.93574      703.93574      703.93574      2148.0321      2851.9679      2148.0321      2851.9679      2148.0321      2851.9679      3.4881813e+08  0.5            13791200       1.597448       7036.6589      14073.334      5.5340228    
  50132600   341.58321     -81.603324     -44183198       1.723248       1017.1765     -44182181       703.93574      703.93574      703.93574      2148.0321      2851.9679      2148.0321      2851.9679      2148.0321      2851.9679      3.4881813e+08  0.5            13791300       1.6116984      7017.3498      14034.69       5.5197172    
  50132800   341.66581     -82.24624      -44183504       1.723248       1017.4224     -44182486       703.93574      703.93574      703.93574      2148.0321      2851.9679      2148.0321      2851.9679      2148.0321      2851.9679      3.4881813e+08  0.5            13791400       1.6259386      7022.3728      14044.752      5.5053774    
  50133000   340.11076     -82.825783     -44183809       1.723248       1012.7918     -44182796       703.93574      703.93574      703.93574      2148.0321      2851.9679      2148.0321      2851.9679      2148.0321      2851.9679      3.4881813e+08  0.5            13791500       1.6401748      7024.3484      14048.705      5.4910262    
  50133200   340.40213     -83.5168       -44186006       1.723248       1013.6594     -44184992       703.93574      703.93574      703.93574      2148.0321      2851.9679      2148.0321      2851.9679      2148.0321      2851.9679      3.4881813e+08  0.5            13791600       1.6543838      7037.8227      14075.622      5.4765869    
  50133400   340.64347     -84.045108     -44186308       1.723248       1014.3781     -44185293       703.93574      703.93574      703.93574      2148.0321      2851.9679      2148.0321      2851.9679      2148.0321      2851.9679      3.4881813e+08  0.5            13791700       1.6685823      7042.9851      14085.985      5.4621172    
  50133600   340.56521     -84.620072     -44186609       1.723248       1014.145      -44185594       703.93574      703.93574      703.93574      2148.0321      2851.9679      2148.0321      2851.9679      2148.0321      2851.9679      3.4881813e+08  0.5            13791800       1.6827882      7039.3084      14078.619      5.4476764    
  50133800   340.39559     -85.26589      -44186909       1.723248       1013.6399     -44185895       703.93574      703.93574      703.93574      2148.0321      2851.9679      2148.0321      2851.9679      2148.0321      2851.9679      3.4881813e+08  0.5            13791900       1.6969849      7043.894       14087.741      5.4332098    
  50134000   338.73019     -85.965809     -44187208       1.723248       1008.6807     -44186199       703.93574      703.93574      703.93574      2148.0321      2851.9679      2148.0321      2851.9679      2148.0321      2851.9679      3.4881813e+08  0.5            13792000       1.7112214      7024.225       14048.465      5.4188736    
  50134200   339.11358     -86.6764       -44187505       1.723248       1009.8223     -44186495       703.93574      703.93574      703.93574      2148.0321      2851.9679      2148.0321      2851.9679      2148.0321      2851.9679      3.4881813e+08  0.5            13792100       1.7254469      7029.6269      14059.286      5.4045047    
  50134400   339.65522     -86.97079      -44180424       1.723248       1011.4352     -44179413       703.93574      703.93574      703.93574      2148.0321      2851.9679      2148.0321      2851.9679      2148.0321      2851.9679      3.4881813e+08  0.5            13792200       1.7396583      7036.6089      14073.212      5.3900944    
  50134600   340.07341     -87.204817     -44173345       1.723248       1012.6805     -44172332       703.93574      703.93574      703.93574      2148.0321      2851.9679      2148.0321      2851.9679      2148.0321      2851.9679      3.4881813e+08  0.5            13792300       1.7538777      7032.6045      14065.234      5.3757122    
  50134800   340.319       -87.746983     -44173644       1.723248       1013.4119     -44172630       703.93574      703.93574      703.93574      2148.0321      2851.9679      2148.0321      2851.9679      2148.0321      2851.9679      3.4881813e+08  0.5            13792400       1.7681144      7024.1219      14048.217      5.3613848    
  50135000   338.82108     -88.334234     -44174311       1.723248       1008.9513     -44173302       703.93574      703.93574      703.93574      2148.0321      2851.9679      2148.0321      2851.9679      2148.0321      2851.9679      3.4881813e+08  0.5            13792500       1.7823618      7018.8196      14037.631      5.347091     
  50135200   339.35857     -88.75071      -44174607       1.723248       1010.5519     -44173597       703.93574      703.93574      703.93574      2148.0321      2851.9679      2148.0321      2851.9679      2148.0321      2851.9679      3.4881813e+08  0.5            13792600       1.7966088      7019.0102      14038.066      5.3327967    
  50135400   339.87344     -89.107763     -44174904       1.723248       1012.0851     -44173892       703.93574      703.93574      703.93574      2148.0321      2851.9679      2148.0321      2851.9679      2148.0321      2851.9679      3.4881813e+08  0.5            13792700       1.8108516      7021.117       14042.164      5.3184909    
  50135600   339.99211     -89.436003     -44175201       1.723248       1012.4385     -44174189       703.93574      703.93574      703.93574      2148.0321      2851.9679      2148.0321      2851.9679      2148.0321      2851.9679      3.4881813e+08  0.5            13792800       1.8250767      7029.8305      14059.715      5.3041344    
  50135800   339.91356     -89.785023     -44175497       1.723248       1012.2045     -44174485       703.93574      703.93574      703.93574      2148.0321      2851.9679      2148.0321      2851.9679      2148.0321      2851.9679      3.4881813e+08  0.5            13792900       1.8392736      7043.7669      14087.496      5.2896993    
  50136000   338.1289      -90.205245     -44175793       1.723248       1006.8901     -44174786       703.93574      703.93574      703.93574      2148.0321      2851.9679      2148.0321      2851.9679      2148.0321      2851.9679      3.4881813e+08  0.5            13793000       1.8534681      7045.01        14090.092      5.2752603    
  50136200   338.54567     -90.705053     -44176085       1.723248       1008.1312     -44175077       703.93574      703.93574      703.93574      2148.0321      2851.9679      2148.0321      2851.9679      2148.0321      2851.9679      3.4881813e+08  0.5            13793100       1.867657       7047.7488      14095.448      5.2608101    
  50136400   339.13798     -91.24247      -44176378       1.723248       1009.895      -44175368       703.93574      703.93574      703.93574      2148.0321      2851.9679      2148.0321      2851.9679      2148.0321      2851.9679      3.4881813e+08  0.5            13793200       1.8818536      7043.9198      14087.826      5.246385     
  50136600   339.4815      -92.157417     -44184050       1.723248       1010.9179     -44183039       703.93574      703.93574      703.93574      2148.0321      2851.9679      2148.0321      2851.9679      2148.0321      2851.9679      3.4881813e+08  0.5            13793300       1.8960431      7047.4721      14094.951      5.2319437    
  50136800   339.72754     -92.675887     -44184344       1.723248       1011.6506     -44183333       703.93574      703.93574      703.93574      2148.0321      2851.9679      2148.0321      2851.9679      2148.0321      2851.9679      3.4881813e+08  0.5            13793400       1.9102661      7030.8922      14061.815      5.2175973    
  50137000   338.17167     -92.833066     -44177261       1.723248       1007.0175     -44176254       703.93574      703.93574      703.93574      2148.0321      2851.9679      2148.0321      2851.9679      2148.0321      2851.9679      3.4881813e+08  0.5            13793500       1.9245009      7024.9997      14049.975      5.2032853    
  50137200   338.78061     -93.417743     -44177553       1.723248       1008.8308     -44176544       703.93574      703.93574      703.93574      2148.0321      2851.9679      2148.0321      2851.9679      2148.0321      2851.9679      3.4881813e+08  0.5            13793600       1.9387152      7035.1658      14070.34       5.1889194    
  50137400   339.38799     -94.026856     -44177845       1.723248       1010.6395     -44176835       703.93574      703.93574      703.93574      2148.0321      2851.9679      2148.0321      2851.9679      2148.0321      2851.9679      3.4881813e+08  0.5            13793700       1.9529242      7037.8177      14075.649      5.1745413    
  50137600   339.66626     -94.792113     -44180033       1.723248       1011.4681     -44179022       703.93574      703.93574      703.93574      2148.0321      2851.9679      2148.0321      2851.9679      2148.0321      2851.9679      3.4881813e+08  0.5            13793800       1.9671345      7037.1293      14074.258      5.1601693    
  50137800   339.76841     -95.388308     -44180326       1.723248       1011.7723     -44179314       703.93574      703.93574      703.93574      2148.0321      2851.9679      2148.0321      2851.9679      2148.0321      2851.9679      3.4881813e+08  0.5            13793900       1.9813614      7028.9722      14057.928      5.1458426    
  50138000   338.24774     -95.611717     -44173241       1.723248       1007.244      -44172234       703.93574      703.93574      703.93574      2148.0321      2851.9679      2148.0321      2851.9679      2148.0321      2851.9679      3.4881813e+08  0.5            13794000       1.9955937      7026.2811      14052.57       5.1315313    
  50138200   338.76223     -96.247575     -44173532       1.723248       1008.7761     -44172523       703.93574      703.93574      703.93574      2148.0321      2851.9679      2148.0321      2851.9679      2148.0321      2851.9679      3.4881813e+08  0.5            13794100       2.0098323      7023.155       14046.256      5.1172373    
  50138400   339.26427     -96.911022     -44173823       1.723248       1010.2711     -44172813       703.93574      703.93574      703.93574      2148.0321      2851.9679      2148.0321      2851.9679      2148.0321      2851.9679      3.4881813e+08  0.5            13794200       2.0240476      7034.6437      14069.336      5.1028853    
  50138600   339.41279     -97.580903     -44174114       1.723248       1010.7133     -44173103       703.93574      703.93574      703.93574      2148.0321      2851.9679      2148.0321      2851.9679      2148.0321      2851.9679      3.4881813e+08  0.5            13794300       2.0382418      7045.1664      14090.274      5.0884824    
  50138800   339.38684     -98.246945     -44174405       1.723248       1010.6361     -44173394       703.93574      703.93574      703.93574      2148.0321      2851.9679      2148.0321      2851.9679      2148.0321      2851.9679      3.4881813e+08  0.5            13794400       2.0524193      7053.4218      14106.879      5.0740411    
  50139000   337.74761     -98.919797     -44174694       1.723248       1005.7547     -44173689       703.93574      703.93574      703.93574      2148.0321      2851.9679      2148.0321      2851.9679      2148.0321      2851.9679      3.4881813e+08  0.5            13794500       2.0665996      7052.0057      14104.052      5.0596104    
  50139200   338.07483     -99.622921     -44174981       1.723248       1006.7291     -44173975       703.93574      703.93574      703.93574      2148.0321      2851.9679      2148.0321      2851.9679      2148.0321      2851.9679      3.4881813e+08  0.5            13794600       2.0807575      7063.1899      14126.334      5.0451291    
  50139400   338.49061     -100.38054     -44175268       1.723248       1007.9672     -44174260       703.93574      703.93574      703.93574      2148.0321      2851.9679      2148.0321      2851.9679      2148.0321      2851.9679      3.4881813e+08  0.5            13794700       2.0948909      7075.4624      14150.926      5.0305928    
  50139600   338.63714     -101.19929     -44175555       1.723248       1008.4036     -44174547       703.93574      703.93574      703.93574      2148.0321      2851.9679      2148.0321      2851.9679      2148.0321      2851.9679      3.4881813e+08  0.5            13794800       2.1090707      7052.2294      14104.491      5.0161728    
  50139800   338.66766     -102.07569     -44175842       1.723248       1008.4945     -44174833       703.93574      703.93574      703.93574      2148.0321      2851.9679      2148.0321      2851.9679      2148.0321      2851.9679      3.4881813e+08  0.5            13794900       2.123226       7064.5267      14129.022      5.001698     
  50140000   337.1811      -102.98966     -44176128       1.723248       1004.0677     -44175124       703.93574      703.93574      703.93574      2148.0321      2851.9679      2148.0321      2851.9679      2148.0321      2851.9679      3.4881813e+08  0.5            13795000       2.137413       7048.7448      14097.498      4.9873013    
  50140200   337.61287     -103.88604     -44176413       1.723248       1005.3535     -44175407       703.93574      703.93574      703.93574      2148.0321      2851.9679      2148.0321      2851.9679      2148.0321      2851.9679      3.4881813e+08  0.5            13795100       2.1515892      7054.0228      14108.095      4.9728826    
  50140400   338.18823     -104.88607     -44178592       1.723248       1007.0668     -44177585       703.93574      703.93574      703.93574      2148.0321      2851.9679      2148.0321      2851.9679      2148.0321      2851.9679      3.4881813e+08  0.5            13795200       2.1660534      6913.6289      13827.202      4.9591268    
  50140600   338.51652     -105.6463      -44178878       1.723248       1008.0444     -44177870       703.93574      703.93574      703.93574      2148.0321      2851.9679      2148.0321      2851.9679      2148.0321      2851.9679      3.4881813e+08  0.5            13795300       2.1802963      7021.0485      14042.115      4.9448594    
  50140800   338.74218     -106.34901     -44179163       1.723248       1008.7164     -44178155       703.93574      703.93574      703.93574      2148.0321      2851.9679      2148.0321      2851.9679      2148.0321      2851.9679      3.4881813e+08  0.5            13795400       2.1945345      7023.3873      14046.745      4.9305817    
  50141000   337.44787     -107.02621     -44179450       1.723248       1004.8621     -44178445       703.93574      703.93574      703.93574      2148.0321      2851.9679      2148.0321      2851.9679      2148.0321      2851.9679      3.4881813e+08  0.5            13795500       2.2088117      7004.1652      14008.4        4.9163915    
  50141200   338.07854     -108.05735     -44187112       1.723248       1006.7402     -44186106       703.93574      703.93574      703.93574      2148.0321      2851.9679      2148.0321      2851.9679      2148.0321      2851.9679      3.4881813e+08  0.5            13795600       2.2230456      7025.4977      14050.96       4.9021047    
  50141400   338.7265      -108.65449     -44187398       1.723248       1008.6697     -44186389       703.93574      703.93574      703.93574      2148.0321      2851.9679      2148.0321      2851.9679      2148.0321      2851.9679      3.4881813e+08  0.5            13795700       2.2372909      7019.8079      14039.622      4.8878436    
  50141600   338.94678     -109.20714     -44187684       1.723248       1009.3256     -44186674       703.93574      703.93574      703.93574      2148.0321      2851.9679      2148.0321      2851.9679      2148.0321      2851.9679      3.4881813e+08  0.5            13795800       2.25153        7022.9044      14045.815      4.8735691    
  50141800   338.90637     -109.7179      -44187969       1.723248       1009.2053     -44186960       703.93574      703.93574      703.93574      2148.0321      2851.9679      2148.0321      2851.9679      2148.0321      2851.9679      3.4881813e+08  0.5            13795900       2.2657665      7024.227       14048.405      4.8592895    
  50142000   337.19782     -110.19768     -44188253       1.723248       1004.1175     -44187249       703.93574      703.93574      703.93574      2148.0321      2851.9679      2148.0321      2851.9679      2148.0321      2851.9679      3.4881813e+08  0.5            13796000       2.280008       7021.7263      14043.516      4.8450209    
  50142200   337.3836      -110.8196      -44190429       1.723248       1004.6707     -44189424       703.93574      703.93574      703.93574      2148.0321      2851.9679      2148.0321      2851.9679      2148.0321      2851.9679      3.4881813e+08  0.5            13796100       2.2942599      7016.6137      14033.225      4.8307749    
  50142400   337.63555     -111.24874     -44190709       1.723248       1005.421      -44189704       703.93574      703.93574      703.93574      2148.0321      2851.9679      2148.0321      2851.9679      2148.0321      2851.9679      3.4881813e+08  0.5            13796200       2.3085217      7011.7391      14023.478      4.8165492    
  50142600   337.63766     -111.66657     -44190989       1.723248       1005.4273     -44189984       703.93574      703.93574      703.93574      2148.0321      2851.9679      2148.0321      2851.9679      2148.0321      2851.9679      3.4881813e+08  0.5            13796300       2.3227732      7016.792       14033.52       4.8023021    
  50142800   337.58661     -112.08558     -44191268       1.723248       1005.2753     -44190263       703.93574      703.93574      703.93574      2148.0321      2851.9679      2148.0321      2851.9679      2148.0321      2851.9679      3.4881813e+08  0.5            13796400       2.3370399      7009.3373      14018.73       4.7880857    
  50143000   336.15092     -112.52628     -44191547       1.723248       1001          -44190546       703.93574      703.93574      703.93574      2148.0321      2851.9679      2148.0321      2851.9679      2148.0321      2851.9679      3.4881813e+08  0.5            13796500       2.3512984      7013.3914      14026.784      4.773852     
  50143200   336.62172     -113.0267      -44191824       1.723248       1002.402      -44190822       703.93574      703.93574      703.93574      2148.0321      2851.9679      2148.0321      2851.9679      2148.0321      2851.9679      3.4881813e+08  0.5            13796600       2.3655624      7010.6685      14021.348      4.7596291    
  50143400   337.20101     -113.57861     -44192102       1.723248       1004.127      -44191098       703.93574      703.93574      703.93574      2148.0321      2851.9679      2148.0321      2851.9679      2148.0321      2851.9679      3.4881813e+08  0.5            13796700       2.3798201      7013.7245      14027.386      4.7453936    
  50143600   337.49773     -114.18278     -44192380       1.723248       1005.0106     -44191375       703.93574      703.93574      703.93574      2148.0321      2851.9679      2148.0321      2851.9679      2148.0321      2851.9679      3.4881813e+08  0.5            13796800       2.394083       7011.1871      14022.396      4.7311678    
  50143800   337.6133      -114.82996     -44192658       1.723248       1005.3548     -44191653       703.93574      703.93574      703.93574      2148.0321      2851.9679      2148.0321      2851.9679      2148.0321      2851.9679      3.4881813e+08  0.5            13796900       2.4083489      7009.7505      14019.562      4.7169472    
  50144000   336.25643     -115.5066      -44192936       1.723248       1001.3142     -44191934       703.93574      703.93574      703.93574      2148.0321      2851.9679      2148.0321      2851.9679      2148.0321      2851.9679      3.4881813e+08  0.5            13797000       2.422643       6995.8645      13991.69       4.7027814    
  50144200   336.53488     -116.18596     -44193211       1.723248       1002.1434     -44192209       703.93574      703.93574      703.93574      2148.0321      2851.9679      2148.0321      2851.9679      2148.0321      2851.9679      3.4881813e+08  0.5            13797100       2.4368902      7018.9442      14037.881      4.6885233    
  50144400   336.87054     -117.24565     -44200864       1.723248       1003.1429     -44199861       703.93574      703.93574      703.93574      2148.0321      2851.9679      2148.0321      2851.9679      2148.0321      2851.9679      3.4881813e+08  0.5            13797200       2.4511112      7031.8632      14063.744      4.6742155    
  50144600   336.99124     -117.91137     -44201139       1.723248       1003.5024     -44200135       703.93574      703.93574      703.93574      2148.0321      2851.9679      2148.0321      2851.9679      2148.0321      2851.9679      3.4881813e+08  0.5            13797300       2.465324       7035.8915      14071.763      4.6598934    
  50144800   337.08174     -118.55067     -44201414       1.723248       1003.7719     -44200410       703.93574      703.93574      703.93574      2148.0321      2851.9679      2148.0321      2851.9679      2148.0321      2851.9679      3.4881813e+08  0.5            13797400       2.4795353      7036.648       14073.261      4.6455698    
  50145000   335.84599     -119.16009     -44201689       1.723248       1000.092      -44200689       703.93574      703.93574      703.93574      2148.0321      2851.9679      2148.0321      2851.9679      2148.0321      2851.9679      3.4881813e+08  0.5            13797500       2.4937622      7028.953       14057.92       4.6312762    
  50145200   336.4143      -119.73668     -44201962       1.723248       1001.7844     -44200961       703.93574      703.93574      703.93574      2148.0321      2851.9679      2148.0321      2851.9679      2148.0321      2851.9679      3.4881813e+08  0.5            13797600       2.5079943      7026.369       14052.752      4.616993     
  50145400   337.08474     -120.68811     -44209615       1.723248       1003.7808     -44208611       703.93574      703.93574      703.93574      2148.0321      2851.9679      2148.0321      2851.9679      2148.0321      2851.9679      3.4881813e+08  0.5            13797700       2.5222523      7013.6084      14027.216      4.6027576    
  50145600   337.47955     -121.25549     -44209890       1.723248       1004.9565     -44208885       703.93574      703.93574      703.93574      2148.0321      2851.9679      2148.0321      2851.9679      2148.0321      2851.9679      3.4881813e+08  0.5            13797800       2.5364971      7020.1194      14040.267      4.588498     
  50145800   337.70034     -121.81454     -44210166       1.723248       1005.6139     -44209161       703.93574      703.93574      703.93574      2148.0321      2851.9679      2148.0321      2851.9679      2148.0321      2851.9679      3.4881813e+08  0.5            13797900       2.5507307      7025.6246      14051.192      4.5742187    
  50146000   336.3718      -122.36082     -44210442       1.723248       1001.6578     -44209440       703.93574      703.93574      703.93574      2148.0321      2851.9679      2148.0321      2851.9679      2148.0321      2851.9679      3.4881813e+08  0.5            13798000       2.5649943      7010.8218      14021.73       4.5599932    
  50146200   336.78331     -122.87572     -44210715       1.723248       1002.8832     -44209713       703.93574      703.93574      703.93574      2148.0321      2851.9679      2148.0321      2851.9679      2148.0321      2851.9679      3.4881813e+08  0.5            13798100       2.5792513      7014.1146      14028.211      4.5457556    
  50146400   337.21051     -123.34363     -44210989       1.723248       1004.1553     -44209985       703.93574      703.93574      703.93574      2148.0321      2851.9679      2148.0321      2851.9679      2148.0321      2851.9679      3.4881813e+08  0.5            13798200       2.593495       7020.6398      14041.282      4.5314944    
  50146600   337.36092     -123.3745      -44203885       1.723248       1004.6032     -44202880       703.93574      703.93574      703.93574      2148.0321      2851.9679      2148.0321      2851.9679      2148.0321      2851.9679      3.4881813e+08  0.5            13798300       2.6077224      7028.7074      14057.413      4.5172053    
  50146800   337.33624     -123.78279     -44204158       1.723248       1004.5297     -44203153       703.93574      703.93574      703.93574      2148.0321      2851.9679      2148.0321      2851.9679      2148.0321      2851.9679      3.4881813e+08  0.5            13798400       2.6219893      7009.2321      14018.465      4.5029848    
  50147000   335.73726     -124.24814     -44204430       1.723248       999.76822     -44203430       703.93574      703.93574      703.93574      2148.0321      2851.9679      2148.0321      2851.9679      2148.0321      2851.9679      3.4881813e+08  0.5            13798500       2.6362797      6997.719       13995.373      4.4888038    
  50147200   335.90507     -124.79709     -44204699       1.723248       1000.2679     -44203699       703.93574      703.93574      703.93574      2148.0321      2851.9679      2148.0321      2851.9679      2148.0321      2851.9679      3.4881813e+08  0.5            13798600       2.6505437      7010.6134      14021.282      4.474577     
  50147400   336.21201     -125.42471     -44204968       1.723248       1001.182      -44203967       703.93574      703.93574      703.93574      2148.0321      2851.9679      2148.0321      2851.9679      2148.0321      2851.9679      3.4881813e+08  0.5            13798700       2.6648066      7011.2013      14022.417      4.4603479    
  50147600   336.35744     -126.09445     -44205237       1.723248       1001.615      -44204236       703.93574      703.93574      703.93574      2148.0321      2851.9679      2148.0321      2851.9679      2148.0321      2851.9679      3.4881813e+08  0.5            13798800       2.6790699      7011.0248      14022.015      4.446119     
  50147800   336.53333     -126.89883     -44205875       1.723248       1002.1388     -44204873       703.93574      703.93574      703.93574      2148.0321      2851.9679      2148.0321      2851.9679      2148.0321      2851.9679      3.4881813e+08  0.5            13798900       2.6933188      7018.094       14036.175      4.4318663    
  50148000   335.2875      -127.56419     -44206144       1.723248       998.42892     -44205146       703.93574      703.93574      703.93574      2148.0321      2851.9679      2148.0321      2851.9679      2148.0321      2851.9679      3.4881813e+08  0.5            13799000       2.7076081      6998.2287      13996.461      4.4176795    
  50148200   335.76139     -128.14278     -44206412       1.723248       999.84009     -44205412       703.93574      703.93574      703.93574      2148.0321      2851.9679      2148.0321      2851.9679      2148.0321      2851.9679      3.4881813e+08  0.5            13799100       2.7218952      6999.3485      13998.677      4.403488     
  50148400   336.21087     -128.61523     -44206680       1.723248       1001.1786     -44205678       703.93574      703.93574      703.93574      2148.0321      2851.9679      2148.0321      2851.9679      2148.0321      2851.9679      3.4881813e+08  0.5            13799200       2.7361459      7017.1868      14034.375      4.3892371    
  50148600   336.30916     -128.63127     -44199569       1.723248       1001.4712     -44198568       703.93574      703.93574      703.93574      2148.0321      2851.9679      2148.0321      2851.9679      2148.0321      2851.9679      3.4881813e+08  0.5            13799300       2.7504089      7011.132       14022.275      4.3750058    
  50148800   336.24145     -129.01747     -44199836       1.723248       1001.2696     -44198835       703.93574      703.93574      703.93574      2148.0321      2851.9679      2148.0321      2851.9679      2148.0321      2851.9679      3.4881813e+08  0.5            13799400       2.7648447      6927.2466      13854.496      4.3610466    
  50149000   334.73755     -129.4241      -44200102       1.723248       996.79126     -44199105       703.93574      703.93574      703.93574      2148.0321      2851.9679      2148.0321      2851.9679      2148.0321      2851.9679      3.4881813e+08  0.5            13799500       2.7791113      7009.351       14018.742      4.346818     
  50149200   335.06454     -129.84068     -44200366       1.723248       997.76499     -44199368       703.93574      703.93574      703.93574      2148.0321      2851.9679      2148.0321      2851.9679      2148.0321      2851.9679      3.4881813e+08  0.5            13799600       2.7936299      6887.6923      13775.326      4.3329801    
  50149400   335.52453     -130.2971      -44200630       1.723248       999.13475     -44199630       703.93574      703.93574      703.93574      2148.0321      2851.9679      2148.0321      2851.9679      2148.0321      2851.9679      3.4881813e+08  0.5            13799700       2.807893       7011.104       14022.154      4.3187421    
  50149600   335.76788     -130.81187     -44200894       1.723248       999.8594      -44199894       703.93574      703.93574      703.93574      2148.0321      2851.9679      2148.0321      2851.9679      2148.0321      2851.9679      3.4881813e+08  0.5            13799800       2.8221797      6999.5303      13999.159      4.3045396    
  50149800   335.91363     -131.37805     -44201158       1.723248       1000.2934     -44200158       703.93574      703.93574      703.93574      2148.0321      2851.9679      2148.0321      2851.9679      2148.0321      2851.9679      3.4881813e+08  0.5            13799900       2.8364529      7006.1619      14012.319      4.2903159    
  50150000   334.68607     -131.98876     -44201422       1.723248       996.63796     -44200426       703.93574      703.93574      703.93574      2148.0321      2851.9679      2148.0321      2851.9679      2148.0321      2851.9679      3.4881813e+08  0.5            13800000       2.8507134      7012.3857      14024.765      4.2760729    
  50150200   335.11864     -132.62342     -44201685       1.723248       997.92609     -44200687       703.93574      703.93574      703.93574      2148.0321      2851.9679      2148.0321      2851.9679      2148.0321      2851.9679      3.4881813e+08  0.5            13800100       2.8649791      7009.7893      14019.583      4.2618374    
  50150400   335.61055     -133.26652     -44201948       1.723248       999.3909      -44200948       703.93574      703.93574      703.93574      2148.0321      2851.9679      2148.0321      2851.9679      2148.0321      2851.9679      3.4881813e+08  0.5            13800200       2.8792255      7019.3329      14038.662      4.247573     
  50150600   335.8781      -133.88172     -44202211       1.723248       1000.1876     -44201211       703.93574      703.93574      703.93574      2148.0321      2851.9679      2148.0321      2851.9679      2148.0321      2851.9679      3.4881813e+08  0.5            13800300       2.8935047      7003.1621      14006.336      4.2333569    
  50150800   336.02748     -134.45003     -44202474       1.723248       1000.6324     -44201474       703.93574      703.93574      703.93574      2148.0321      2851.9679      2148.0321      2851.9679      2148.0321      2851.9679      3.4881813e+08  0.5            13800400       2.9077788      7005.701       14011.417      4.2191327    
  50151000   334.79031     -134.98149     -44202738       1.723248       996.94838     -44201741       703.93574      703.93574      703.93574      2148.0321      2851.9679      2148.0321      2851.9679      2148.0321      2851.9679      3.4881813e+08  0.5            13800500       2.9221112      6977.2185      13954.387      4.2049921    
  50151200   335.10129     -135.47945     -44202999       1.723248       997.87443     -44202001       703.93574      703.93574      703.93574      2148.0321      2851.9679      2148.0321      2851.9679      2148.0321      2851.9679      3.4881813e+08  0.5            13800600       2.9364048      6996.1587      13992.329      4.190794     
  50151400   335.39677     -135.98488     -44203259       1.723248       998.75432     -44202261       703.93574      703.93574      703.93574      2148.0321      2851.9679      2148.0321      2851.9679      2148.0321      2851.9679      3.4881813e+08  0.5            13800700       2.9506592      7015.3516      14030.699      4.1765396    
  50151600   335.39518     -136.51591     -44203519       1.723248       998.74958     -44202521       703.93574      703.93574      703.93574      2148.0321      2851.9679      2148.0321      2851.9679      2148.0321      2851.9679      3.4881813e+08  0.5            13800800       2.9648991      7022.5158      14045.019      4.1622649    
  50151800   335.30752     -136.91245     -44201884       1.723248       998.48855     -44200886       703.93574      703.93574      703.93574      2148.0321      2851.9679      2148.0321      2851.9679      2148.0321      2851.9679      3.4881813e+08  0.5            13800900       2.9791411      7021.5015      14042.994      4.1479933    
  50152000   333.98117     -137.64633     -44204038       1.723248       994.53888     -44203044       703.93574      703.93574      703.93574      2148.0321      2851.9679      2148.0321      2851.9679      2148.0321      2851.9679      3.4881813e+08  0.5            13801000       2.9934005      7012.8952      14025.841      4.1337461    
  50152200   334.31503     -138.20186     -44204295       1.723248       995.53306     -44203300       703.93574      703.93574      703.93574      2148.0321      2851.9679      2148.0321      2851.9679      2148.0321      2851.9679      3.4881813e+08  0.5            13801100       3.0076585      7013.6295      14027.25       4.1194969    
  50152400   334.77903     -138.74155     -44204553       1.723248       996.91478     -44203556       703.93574      703.93574      703.93574      2148.0321      2851.9679      2148.0321      2851.9679      2148.0321      2851.9679      3.4881813e+08  0.5            13801200       3.0219241      7009.8453      14019.703      4.1052579    
  50152600   335.10904     -139.63747     -44212188       1.723248       997.89749     -44211191       703.93574      703.93574      703.93574      2148.0321      2851.9679      2148.0321      2851.9679      2148.0321      2851.9679      3.4881813e+08  0.5            13801300       3.0361781      7015.5948      14031.141      4.0910031    
  50152800   335.33308     -140.08767     -44212447       1.723248       998.56465     -44211448       703.93574      703.93574      703.93574      2148.0321      2851.9679      2148.0321      2851.9679      2148.0321      2851.9679      3.4881813e+08  0.5            13801400       3.0504166      7023.2221      14046.465      4.0767275    
  50153000   334.17619     -140.46089     -44212705       1.723248       995.11963     -44211710       703.93574      703.93574      703.93574      2148.0321      2851.9679      2148.0321      2851.9679      2148.0321      2851.9679      3.4881813e+08  0.5            13801500       3.064677       7012.4172      14024.856      4.0624813    
  50153200   334.46499     -140.76624     -44212961       1.723248       995.97963     -44211965       703.93574      703.93574      703.93574      2148.0321      2851.9679      2148.0321      2851.9679      2148.0321      2851.9679      3.4881813e+08  0.5            13801600       3.0789226      7019.7163      14039.442      4.0482155    
  50153400   334.66132     -141.03036     -44213217       1.723248       996.56426     -44212220       703.93574      703.93574      703.93574      2148.0321      2851.9679      2148.0321      2851.9679      2148.0321      2851.9679      3.4881813e+08  0.5            13801700       3.0931632      7022.1494      14044.31       4.0339434    
  50153600   334.48243     -141.27455     -44213471       1.723248       996.03156     -44212475       703.93574      703.93574      703.93574      2148.0321      2851.9679      2148.0321      2851.9679      2148.0321      2851.9679      3.4881813e+08  0.5            13801800       3.1074293      7009.6144      14019.214      4.0197045    
  50153800   334.15222     -141.549       -44213724       1.723248       995.04826     -44212729       703.93574      703.93574      703.93574      2148.0321      2851.9679      2148.0321      2851.9679      2148.0321      2851.9679      3.4881813e+08  0.5            13801900       3.1217274      6993.9798      13987.937      4.0055065    
  50154000   332.61309     -141.88912     -44213976       1.723248       990.46498     -44212985       703.93574      703.93574      703.93574      2148.0321      2851.9679      2148.0321      2851.9679      2148.0321      2851.9679      3.4881813e+08  0.5            13802000       3.1360261      6993.5885      13987.189      3.9913085    
  50154200   332.76388     -142.27991     -44214225       1.723248       990.91401     -44213234       703.93574      703.93574      703.93574      2148.0321      2851.9679      2148.0321      2851.9679      2148.0321      2851.9679      3.4881813e+08  0.5            13802100       3.150273       7019.0895      14038.187      3.9770439    
  50154400   333.07678     -142.71332     -44214474       1.723248       991.84576     -44213482       703.93574      703.93574      703.93574      2148.0321      2851.9679      2148.0321      2851.9679      2148.0321      2851.9679      3.4881813e+08  0.5            13802200       3.164531       7013.5941      14027.173      3.9627935    
  50154600   333.23594     -143.1955      -44214723       1.723248       992.31974     -44213730       703.93574      703.93574      703.93574      2148.0321      2851.9679      2148.0321      2851.9679      2148.0321      2851.9679      3.4881813e+08  0.5            13802300       3.1787616      7027.1649      14054.296      3.9485088    
[...]
  50199200   326.71747     -249.45431     -44293756       1.723248       972.90885     -44292783       703.93574      703.93574      703.93574      2148.0321      2851.9679      2148.0321      2851.9679      2148.0321      2851.9679      3.4881813e+08  0.5            13824600       6.3569235      7022.6391      14045.32       0.76967259   
  50199400   326.78964     -249.79618     -44293938       1.723248       973.12374     -44292965       703.93574      703.93574      703.93574      2148.0321      2851.9679      2148.0321      2851.9679      2148.0321      2851.9679      3.4881813e+08  0.5            13824700       6.3711825      7013.1524      14026.307      0.75542007   
  50199600   326.88553     -250.12032     -44294120       1.723248       973.4093      -44293147       703.93574      703.93574      703.93574      2148.0321      2851.9679      2148.0321      2851.9679      2148.0321      2851.9679      3.4881813e+08  0.5            13824800       6.3854425      7012.6178      14025.228      0.74116765   
  50199800   327.02571     -250.40619     -44294303       1.723248       973.82673     -44293329       703.93574      703.93574      703.93574      2148.0321      2851.9679      2148.0321      2851.9679      2148.0321      2851.9679      3.4881813e+08  0.5            13824900       6.399701       7013.3309      14026.665      0.72691504   
  50200000   326.38396     -250.65813     -44294486       1.723248       971.9157      -44293514       703.93574      703.93574      703.93574      2148.0321      2851.9679      2148.0321      2851.9679      2148.0321      2851.9679      3.4881813e+08  0.5            13825000       6.4275203      3594.6043      7189.1866      0.71416917   
  50200200   326.66931     -250.89782     -44294667       1.723248       972.76542     -44293695       703.93574      703.93574      703.93574      2148.0321      2851.9679      2148.0321      2851.9679      2148.0321      2851.9679      3.4881813e+08  0.5            13825100       6.4418091      6998.5863      13997.241      0.69988635   
  50200400   326.927       -251.1537      -44294849       1.723248       973.53278     -44293876       703.93574      703.93574      703.93574      2148.0321      2851.9679      2148.0321      2851.9679      2148.0321      2851.9679      3.4881813e+08  0.5            13825200       6.4560485      7022.755       14045.451      0.68559829   
  50200600   326.99184     -251.46676     -44295031       1.723248       973.72585     -44294057       703.93574      703.93574      703.93574      2148.0321      2851.9679      2148.0321      2851.9679      2148.0321      2851.9679      3.4881813e+08  0.5            13825300       6.4702813      7026.0432      14052.144      0.67130974   
  50200800   326.94806     -251.86262     -44295213       1.723248       973.5955      -44294239       703.93574      703.93574      703.93574      2148.0321      2851.9679      2148.0321      2851.9679      2148.0321      2851.9679      3.4881813e+08  0.5            13825400       6.484512       7027.0597      14054.116      0.65702124   
  50201000   326.08586     -252.35003     -44295394       1.723248       971.028       -44294423       703.93574      703.93574      703.93574      2148.0321      2851.9679      2148.0321      2851.9679      2148.0321      2851.9679      3.4881813e+08  0.5            13825500       6.4987426      7027.0913      14054.239      0.64273297   
  50201200   326.19783     -253.2743      -44302951       1.723248       971.36145     -44301980       703.93574      703.93574      703.93574      2148.0321      2851.9679      2148.0321      2851.9679      2148.0321      2851.9679      3.4881813e+08  0.5            13825600       6.5129867      7020.5127      14040.993      0.62844626   
  50201400   326.42741     -253.79584     -44303131       1.723248       972.04509     -44302159       703.93574      703.93574      703.93574      2148.0321      2851.9679      2148.0321      2851.9679      2148.0321      2851.9679      3.4881813e+08  0.5            13825700       6.5272336      7019.0713      14038.184      0.61416      
  50201600   326.54761     -253.85327     -44295933       1.723248       972.40301     -44294961       703.93574      703.93574      703.93574      2148.0321      2851.9679      2148.0321      2851.9679      2148.0321      2851.9679      3.4881813e+08  0.5            13825800       6.5414732      7022.6509      14045.195      0.59987327   
  50201800   326.66273     -254.22042     -44296113       1.723248       972.74582     -44295140       703.93574      703.93574      703.93574      2148.0321      2851.9679      2148.0321      2851.9679      2148.0321      2851.9679      3.4881813e+08  0.5            13825900       6.5556883      7034.7867      14069.607      0.58558452   
  50202000   325.84023     -254.54876     -44296292       1.723248       970.29657     -44295322       703.93574      703.93574      703.93574      2148.0321      2851.9679      2148.0321      2851.9679      2148.0321      2851.9679      3.4881813e+08  0.5            13826000       6.5699357      7018.8289      14037.674      0.57129892   
  50202200   325.98643     -254.88946     -44296471       1.723248       970.73192     -44295500       703.93574      703.93574      703.93574      2148.0321      2851.9679      2148.0321      2851.9679      2148.0321      2851.9679      3.4881813e+08  0.5            13826100       6.5841584      7030.9574      14061.941      0.55701139   
  50202400   326.21352     -255.27214     -44296649       1.723248       971.40815     -44295677       703.93574      703.93574      703.93574      2148.0321      2851.9679      2148.0321      2851.9679      2148.0321      2851.9679      3.4881813e+08  0.5            13826200       6.5984001      7021.6588      14043.314      0.5427257    
  50202600   326.37749     -255.70219     -44296827       1.723248       971.89644     -44295855       703.93574      703.93574      703.93574      2148.0321      2851.9679      2148.0321      2851.9679      2148.0321      2851.9679      3.4881813e+08  0.5            13826300       6.6126412      7021.9497      14043.893      0.52844016   
  50202800   326.55765     -256.19552     -44297006       1.723248       972.43291     -44296033       703.93574      703.93574      703.93574      2148.0321      2851.9679      2148.0321      2851.9679      2148.0321      2851.9679      3.4881813e+08  0.5            13826400       6.626894       7016.1396      14032.264      0.51415572   
  50203000   325.97969     -256.7349      -44297185       1.723248       970.71184     -44296214       703.93574      703.93574      703.93574      2148.0321      2851.9679      2148.0321      2851.9679      2148.0321      2851.9679      3.4881813e+08  0.5            13826500       6.6411449      7017.0908      14034.201      0.49987126   
  50203200   326.38579     -257.26169     -44297364       1.723248       971.92114     -44296392       703.93574      703.93574      703.93574      2148.0321      2851.9679      2148.0321      2851.9679      2148.0321      2851.9679      3.4881813e+08  0.5            13826600       6.6553668      7031.4212      14062.85       0.48558484   
  50203400   326.76284     -258.11337     -44304920       1.723248       973.04395     -44303947       703.93574      703.93574      703.93574      2148.0321      2851.9679      2148.0321      2851.9679      2148.0321      2851.9679      3.4881813e+08  0.5            13826700       6.6695915      7030.0297      14060.053      0.47129889   
  50203600   326.97168     -258.48975     -44303573       1.723248       973.66583     -44302600       703.93574      703.93574      703.93574      2148.0321      2851.9679      2148.0321      2851.9679      2148.0321      2851.9679      3.4881813e+08  0.5            13826800       6.6838307      7022.8472      14045.656      0.4570142    
  50203800   327.05923     -258.90675     -44303753       1.723248       973.92653     -44302779       703.93574      703.93574      703.93574      2148.0321      2851.9679      2148.0321      2851.9679      2148.0321      2851.9679      3.4881813e+08  0.5            13826900       6.6980823      7016.7314      14033.476      0.44273052   
  50204000   326.22168     -259.36065     -44303932       1.723248       971.43245     -44302960       703.93574      703.93574      703.93574      2148.0321      2851.9679      2148.0321      2851.9679      2148.0321      2851.9679      3.4881813e+08  0.5            13827000       6.7123586      7004.6573      14009.309      0.42844854   
  50204200   326.36463     -259.87804     -44304109       1.723248       971.85814     -44303138       703.93574      703.93574      703.93574      2148.0321      2851.9679      2148.0321      2851.9679      2148.0321      2851.9679      3.4881813e+08  0.5            13827100       6.7266155      7014.149       14028.278      0.41416541   
  50204400   326.59684     -260.48368     -44304287       1.723248       972.54962     -44303315       703.93574      703.93574      703.93574      2148.0321      2851.9679      2148.0321      2851.9679      2148.0321      2851.9679      3.4881813e+08  0.5            13827200       6.7408721      7014.271       14028.554      0.39988236   
  50204600   326.78202     -261.14669     -44304465       1.723248       973.10104     -44303492       703.93574      703.93574      703.93574      2148.0321      2851.9679      2148.0321      2851.9679      2148.0321      2851.9679      3.4881813e+08  0.5            13827300       6.7550977      7029.6096      14059.262      0.38559765   
  50204800   326.91214     -261.7652      -44304644       1.723248       973.48854     -44303670       703.93574      703.93574      703.93574      2148.0321      2851.9679      2148.0321      2851.9679      2148.0321      2851.9679      3.4881813e+08  0.5            13827400       6.7693504      7016.215       14032.396      0.37131468   
  50205000   326.06021     -262.23714     -44304822       1.723248       970.95162     -44303851       703.93574      703.93574      703.93574      2148.0321      2851.9679      2148.0321      2851.9679      2148.0321      2851.9679      3.4881813e+08  0.5            13827500       6.7835959      7019.7444      14039.525      0.35703146   
  50205200   326.10679     -262.53166     -44304998       1.723248       971.09034     -44304027       703.93574      703.93574      703.93574      2148.0321      2851.9679      2148.0321      2851.9679      2148.0321      2851.9679      3.4881813e+08  0.5            13827600       6.7978104      7035.0723      14070.151      0.34274684   
  50205400   326.13217     -262.67211     -44305174       1.723248       971.16592     -44304203       703.93574      703.93574      703.93574      2148.0321      2851.9679      2148.0321      2851.9679      2148.0321      2851.9679      3.4881813e+08  0.5            13827700       6.8122717      6914.999       13829.948      0.32847441   
  50205600   326.03202     -262.70414     -44305349       1.723248       970.86768     -44304378       703.93574      703.93574      703.93574      2148.0321      2851.9679      2148.0321      2851.9679      2148.0321      2851.9679      3.4881813e+08  0.5            13827800       6.8265366      7010.2478      14020.512      0.31419215   
  50205800   325.89863     -262.70832     -44305524       1.723248       970.47046     -44304553       703.93574      703.93574      703.93574      2148.0321      2851.9679      2148.0321      2851.9679      2148.0321      2851.9679      3.4881813e+08  0.5            13827900       6.8408045      7008.6765      14017.363      0.2999101    
  50206000   324.94684     -262.79691     -44305698       1.723248       967.63621     -44304730       703.93574      703.93574      703.93574      2148.0321      2851.9679      2148.0321      2851.9679      2148.0321      2851.9679      3.4881813e+08  0.5            13828000       6.8550795      7005.2917      14010.602      0.28562839   
  50206200   325.09884     -263.02109     -44305870       1.723248       968.08884     -44304902       703.93574      703.93574      703.93574      2148.0321      2851.9679      2148.0321      2851.9679      2148.0321      2851.9679      3.4881813e+08  0.5            13828100       6.8693513      7006.8143      14013.63       0.27134659   
  50206400   325.42531     -263.34918     -44306043       1.723248       969.061       -44305074       703.93574      703.93574      703.93574      2148.0321      2851.9679      2148.0321      2851.9679      2148.0321      2851.9679      3.4881813e+08  0.5            13828200       6.8836088      7013.8622      14027.725      0.2570643    
  50206600   325.71247     -263.75191     -44306217       1.723248       969.91611     -44305247       703.93574      703.93574      703.93574      2148.0321      2851.9679      2148.0321      2851.9679      2148.0321      2851.9679      3.4881813e+08  0.5            13828300       6.8978522      7020.8059      14041.6        0.24278161   
  50206800   325.9324      -264.37714     -44308286       1.723248       970.57102     -44307315       703.93574      703.93574      703.93574      2148.0321      2851.9679      2148.0321      2851.9679      2148.0321      2851.9679      3.4881813e+08  0.5            13828400       6.9120798      7028.5928      14057.173      0.22849857   
  50207000   325.42776     -264.90471     -44308461       1.723248       969.06829     -44307492       703.93574      703.93574      703.93574      2148.0321      2851.9679      2148.0321      2851.9679      2148.0321      2851.9679      3.4881813e+08  0.5            13828500       6.9263623      7001.5425      14003.126      0.21421745   
  50207200   325.79454     -265.51434     -44308635       1.723248       970.16052     -44307664       703.93574      703.93574      703.93574      2148.0321      2851.9679      2148.0321      2851.9679      2148.0321      2851.9679      3.4881813e+08  0.5            13828600       6.9406094      7018.9683      14037.904      0.19993531   
  50207400   326.02598     -266.176       -44308808       1.723248       970.8497      -44307837       703.93574      703.93574      703.93574      2148.0321      2851.9679      2148.0321      2851.9679      2148.0321      2851.9679      3.4881813e+08  0.5            13828700       6.9548437      7025.319       14050.581      0.18565296   
  50207600   326.08473     -266.83304     -44308982       1.723248       971.02464     -44308011       703.93574      703.93574      703.93574      2148.0321      2851.9679      2148.0321      2851.9679      2148.0321      2851.9679      3.4881813e+08  0.5            13828800       6.9690806      7024.0074      14048.066      0.17137088   
  50207800   326.12945     -267.46018     -44309155       1.723248       971.15782     -44308184       703.93574      703.93574      703.93574      2148.0321      2851.9679      2148.0321      2851.9679      2148.0321      2851.9679      3.4881813e+08  0.5            13828900       6.9833206      7022.4803      14044.955      0.15708905   
  50208000   325.39824     -268.059       -44309329       1.723248       968.98041     -44308360       703.93574      703.93574      703.93574      2148.0321      2851.9679      2148.0321      2851.9679      2148.0321      2851.9679      3.4881813e+08  0.5            13829000       6.9975757      7015.0421      14030.14       0.1428077    
  50208200   325.71066     -268.61405     -44309502       1.723248       969.91072     -44308532       703.93574      703.93574      703.93574      2148.0321      2851.9679      2148.0321      2851.9679      2148.0321      2851.9679      3.4881813e+08  0.5            13829100       7.0118279      7016.4188      14032.799      0.12852641   
  50208400   326.05111     -269.11071     -44309675       1.723248       970.92453     -44308705       703.93574      703.93574      703.93574      2148.0321      2851.9679      2148.0321      2851.9679      2148.0321      2851.9679      3.4881813e+08  0.5            13829200       7.0260868      7013.1927      14026.345      0.11424534   
  50208600   326.17848     -269.54816     -44309849       1.723248       971.30381     -44308877       703.93574      703.93574      703.93574      2148.0321      2851.9679      2148.0321      2851.9679      2148.0321      2851.9679      3.4881813e+08  0.5            13829300       7.0403565      7007.8268      14015.683      0.099964521  
  50208800   326.13771     -269.9436      -44310022       1.723248       971.18241     -44309051       703.93574      703.93574      703.93574      2148.0321      2851.9679      2148.0321      2851.9679      2148.0321      2851.9679      3.4881813e+08  0.5            13829400       7.0546116      7015.0337      14030.124      0.085683564  
  50209000   325.1876      -270.31692     -44310194       1.723248       968.35313     -44309226       703.93574      703.93574      703.93574      2148.0321      2851.9679      2148.0321      2851.9679      2148.0321      2851.9679      3.4881813e+08  0.5            13829500       7.0688933      7001.9842      14003.935      0.071402981  
  50209200   325.24427     -270.8388      -44312260       1.723248       968.52191     -44311291       703.93574      703.93574      703.93574      2148.0321      2851.9679      2148.0321      2851.9679      2148.0321      2851.9679      3.4881813e+08  0.5            13829600       7.0831647      7007.0333      14014.11       0.057122311  
  50209400   325.38397     -271.18564     -44312430       1.723248       968.93791     -44311462       703.93574      703.93574      703.93574      2148.0321      2851.9679      2148.0321      2851.9679      2148.0321      2851.9679      3.4881813e+08  0.5            13829700       7.0974445      7002.9173      14005.765      0.042841728  
  50209600   325.40857     -271.49736     -44312601       1.723248       969.01115     -44311632       703.93574      703.93574      703.93574      2148.0321      2851.9679      2148.0321      2851.9679      2148.0321      2851.9679      3.4881813e+08  0.5            13829800       7.1117157      7007.0917      14014.214      0.028561115  
  50209800   325.39965     -271.77937     -44312771       1.723248       968.98459     -44311802       703.93574      703.93574      703.93574      2148.0321      2851.9679      2148.0321      2851.9679      2148.0321      2851.9679      3.4881813e+08  0.5            13829900       7.1260002      7000.571       14001.131      0.014280565  
  50210000   324.57408     -272.0765      -44312941       1.723248       966.5262      -44311974       703.93574      703.93574      703.93574      2148.0321      2851.9679      2148.0321      2851.9679      2148.0321      2851.9679      3.4881813e+08  0.5            13830000       7.1402987      6993.7753      13987.528      0            
Loop time of 7.14032 on 4 procs for 100000 steps with 1000 atoms

Performance: 605.015 ns/day, 0.040 hours/ns, 14004.982 timesteps/s
99.9% CPU use with 4 MPI tasks x 1 OpenMP threads

MPI task timing breakdown:
Section |  min time  |  avg time  |  max time  |%varavg| %total
---------------------------------------------------------------
Pair    | 3.7735     | 4.3942     | 4.8194     |  19.5 | 61.54
Neigh   | 0.0018241  | 0.0020539  | 0.0022334  |   0.4 |  0.03
Comm    | 1.4418     | 1.8474     | 2.4567     |  29.4 | 25.87
Output  | 0.025064   | 0.026292   | 0.02985    |   1.3 |  0.37
Modify  | 0.5823     | 0.59367    | 0.61134    |   1.6 |  8.31
Other   |            | 0.2767     |            |       |  3.88

Nlocal:            250 ave         271 max         227 min
Histogram: 1 0 1 0 0 0 0 0 1 1
Nghost:         667.75 ave         671 max         664 min
Histogram: 1 0 0 0 1 0 0 1 0 1
Neighs:        1690.75 ave        1858 max        1490 min
Histogram: 1 0 0 1 0 0 0 0 1 1

Total # of neighbors = 6763
Ave neighs/atom = 6.763
Neighbor list builds = 11
Dangerous builds = 0

# run_style
run_style verlet


Total wall time: 0:00:07
