LAMMPS (23 Jun 2022 - Update 1)
OMP_NUM_THREADS environment is not set. Defaulting to 1 thread. (src/comm.cpp:98)
  using 1 OpenMP thread(s) per MPI task
###

# Read restart info
read_restart ${read_res}
read_restart ./trial7/3070/equpmf71.res
Reading restart file ...
  restart file = 23 Jun 2022, LAMMPS = 23 Jun 2022
  restoring atom style atomic from restart
  orthogonal box = (1650.9744 1650.9744 1650.9744) to (2349.0256 2349.0256 2349.0256)
  1 by 2 by 2 MPI processor grid
  restoring pair style table from restart
  1000 atoms
  read_restart CPU = 0.045 seconds

# Settings
pair_style table/pgn spline 10941
pair_coeff 1 1 N20e.txt DE_GNP 308 72.9   # 1.35 * r
pair_coeff 2 2 N100e.txt DE_GNP 473.9 111.78
WARNING: 20 of 10941 force values in table DE_GNP are inconsistent with -dE/dr.
WARNING:  Should only be flagged at inflection points (src/pair_table_pgn.cpp:478)
pair_coeff 1 2 mixed_potentiale.txt DE_GNP 391.2 92.95
WARNING: 1564 of 10941 force values in table DE_GNP are inconsistent with -dE/dr.
WARNING:  Should only be flagged at inflection points (src/pair_table_pgn.cpp:478)

# Neighbor list
neighbor 2.0 bin
neigh_modify delay 0 every 1 check no once yes

# Temperature
variable T equal ${Temp}
variable T equal 300

# Deformation
reset_timestep 0
variable tmp equal "lx"
variable L0 equal ${tmp}
variable L0 equal 698.051138707309
variable strain equal "(lx - v_L0)/v_L0"
variable stp equal "step"
variable tmpe equal "temp"
variable p1 equal "v_strain"
variable p2 equal "-pxx*1.01325/10000"
variable p3 equal "-pyy*1.01325/10000"
variable p4 equal "-pzz*1.01325/10000"
variable p5 equal "lx"
variable p6 equal "ly"
variable p7 equal "lz"
variable p8 equal "press"
variable p9 equal "epair"
variable p10 equal "etotal"

# Thermo
thermo_style custom step temp v_p1 v_p2 v_p3 v_p4 press lx ly lz vol density epair pe ke etotal pxx pyy pzz pxy pxz pyz spcpu
thermo ${ts_save}
thermo 1000

# Dump
# dump 1 all custom 2000 ./${N20}${N100}/tensile/trajectory/trajectory_${usic}_${trial}_*.tensile.custom id type x y z ix iy iz
# dump_modify 1 sort id
dump 2 all cfg 50000 ./trial${trial}/${N20}${N100}/tensile/trajectory/dumpten.tens_${usic}_${trial}_*.cfg mass type xs ys zs fx fy fz
dump 2 all cfg 50000 ./trial7/${N20}${N100}/tensile/trajectory/dumpten.tens_${usic}_${trial}_*.cfg mass type xs ys zs fx fy fz
dump 2 all cfg 50000 ./trial7/30${N100}/tensile/trajectory/dumpten.tens_${usic}_${trial}_*.cfg mass type xs ys zs fx fy fz
dump 2 all cfg 50000 ./trial7/3070/tensile/trajectory/dumpten.tens_${usic}_${trial}_*.cfg mass type xs ys zs fx fy fz
dump 2 all cfg 50000 ./trial7/3070/tensile/trajectory/dumpten.tens_1_${trial}_*.cfg mass type xs ys zs fx fy fz
dump 2 all cfg 50000 ./trial7/3070/tensile/trajectory/dumpten.tens_1_7_*.cfg mass type xs ys zs fx fy fz
dump_modify 2 element N20 N100

fix 1 all nvt temp ${T} ${T} 100
fix 1 all nvt temp 300 ${T} 100
fix 1 all nvt temp 300 300 100
fix 2 all deform 1 x erate ${strain_rate} y erate ${strain_rate} z erate ${strain_rate} units box
fix 2 all deform 1 x erate 5e-6 y erate ${strain_rate} z erate ${strain_rate} units box
fix 2 all deform 1 x erate 5e-6 y erate 5e-6 z erate ${strain_rate} units box
fix 2 all deform 1 x erate 5e-6 y erate 5e-6 z erate 5e-6 units box
fix             def1 all print ${ts_save} "${p1} ${p2} ${p3} ${p4}" file ./tensile/${trial}/tensile${N20}${N100}_${usic}_${trial}.txt screen no
fix             def1 all print 1000 "${p1} ${p2} ${p3} ${p4}" file ./tensile/${trial}/tensile${N20}${N100}_${usic}_${trial}.txt screen no
fix             def1 all print 1000 "${p1} ${p2} ${p3} ${p4}" file ./tensile/7/tensile${N20}${N100}_${usic}_${trial}.txt screen no
fix             def1 all print 1000 "${p1} ${p2} ${p3} ${p4}" file ./tensile/7/tensile30${N100}_${usic}_${trial}.txt screen no
fix             def1 all print 1000 "${p1} ${p2} ${p3} ${p4}" file ./tensile/7/tensile3070_${usic}_${trial}.txt screen no
fix             def1 all print 1000 "${p1} ${p2} ${p3} ${p4}" file ./tensile/7/tensile3070_1_${trial}.txt screen no
fix             def1 all print 1000 "${p1} ${p2} ${p3} ${p4}" file ./tensile/7/tensile3070_1_7.txt screen no

timestep       		${ts}
timestep       		0.1
run				${steps_tensile}
run				6000000
Generated 0 of 1 mixed pair_coeff terms from geometric mixing rule
Unused restart file global fix info:
  fix style: npt, fix ID: 5
Neighbor list info ...
  update every 1 steps, delay 0 steps, check no
  max neighbors/atom: 2000, page size: 100000
  master list distance cutoff = 113.78
  ghost atom cutoff = 113.78
  binsize = 56.89, bins = 13 13 13
  1 neighbor lists, perpetual/occasional/extra = 1 0 0
  (1) pair table/pgn, perpetual
      attributes: half, newton on
      pair build: half/bin/atomonly/newton
      stencil: half/bin/3d
      bin: standard
Per MPI rank memory allocation (min/avg/max) = 3.852 | 3.852 | 3.853 Mbytes
   Step          Temp           v_p1           v_p2           v_p3           v_p4          Press            Lx             Ly             Lz           Volume        Density         E_pair         PotEng         KinEng         TotEng          Pxx            Pyy            Pzz            Pxy            Pxz            Pyz           S/CPU     
         0   301.03748     -4.8858958e-16  0.0051317018   0.017059525   -0.001377376   -68.472244      698.05114      698.05114      698.05114      3.4014314e+08  1.7671976     -42083416      -42083416       896.4382      -42082520      -50.645959     -168.36442      13.593645     -12.489109      9.3861934      85.125719      0            
      1000   328.51632      0.0005         0.014583588    0.026540238    0.0081906965  -162.23216      698.40016      698.40016      698.40016      3.4065361e+08  1.7645495     -42082671      -42082671       978.2655      -42081693      -143.92882     -261.93178     -80.835889     -10.639711      8.5879954      83.58109       13020.505    
      2000   383.50596      0.001          0.0233771      0.035112478    0.017138869   -248.79825      698.74919      698.74919      698.74919      3.4116459e+08  1.7619066     -42081432      -42081432       1142.0153     -42080290      -230.71404     -346.53321     -169.14749     -10.018803      8.2345662      82.149837      13325.468    
      3000   440.92315      0.0015         0.031516074    0.042968154    0.025535001   -329.03768      699.09822      699.09822      699.09822      3.4167608e+08  1.759269      -42079711      -42079711       1312.9938     -42078398      -311.03947     -424.06271     -252.01087     -10.169041      8.2064843      80.984524      13494.883    
      4000   478.98807      0.002          0.039423165    0.050730442    0.033840214   -407.90796      699.44724      699.44724      699.44724      3.4218809e+08  1.7566367     -42077483      -42077483       1426.3447     -42076056      -389.07639     -500.67054     -333.97695     -10.357439      8.0818273      80.470182      13277.82     
      5000   493.5437       0.0025         0.047445323    0.058572422    0.042130065   -487.3684       699.79627      699.79627      699.79627      3.427006e+08   1.7540096     -42074696      -42074696       1469.6889     -42073226      -468.24893     -578.06486     -415.79142     -10.263203      7.7365473      79.820318      13433.946    
      6000   490.86524      0.003          0.055567981    0.066428235    0.050254808   -566.66181      700.14529      700.14529      700.14529      3.4321362e+08  1.7513878     -42071331      -42071331       1461.7129     -42069869      -548.41333     -655.5957      -495.97639     -9.8212739      7.2674019      77.679673      13240.009    
      7000   479.30943      0.0035         0.063600796    0.074230083    0.058222703   -644.96614      700.49432      700.49432      700.49432      3.4372716e+08  1.7487712     -42067378      -42067378       1427.3016     -42065951      -627.69105     -732.59396     -574.6134      -9.2717042      7.1164493      75.173483      13419.534    
      8000   464.98349      0.004          0.071353382    0.082032998    0.066142746   -722.19467      700.84334      700.84334      700.84334      3.4424121e+08  1.7461598     -42062829      -42062829       1384.6414     -42061445      -704.20313     -809.60274     -652.77815     -8.5760381      6.526893       73.150879      13396.49     
      9000   451.01543      0.0045         0.079039013    0.089874611    0.074137041   -799.57452      701.19237      701.19237      701.19237      3.4475577e+08  1.7435535     -42057672      -42057672       1343.0469     -42056329      -780.05441     -886.99345     -731.67571     -8.0385045      5.0957235      72.028563      13135.425    
     10000   438.43927      0.005          0.086753165    0.097618829    0.082181667   -876.89337      701.54139      701.54139      701.54139      3.4527084e+08  1.7409525     -42051909      -42051909       1305.5973     -42050604      -856.18717     -963.42294     -811.06999     -8.1601834      3.8081301      70.676848      13508.844    
     11000   427.54629      0.0055         0.094337949    0.10497317     0.089995643   -951.74526      701.89042      701.89042      701.89042      3.4578643e+08  1.7383567     -42045560      -42045560       1273.1598     -42044287      -931.04317     -1036.0047     -888.18794     -8.7224505      2.956099       68.57311       13239.623    
     12000   418.15521      0.006          0.10161552     0.11185362     0.097390431   -1022.6485      702.23945      702.23945      702.23945      3.4630253e+08  1.735766      -42038642      -42038642       1245.1948     -42037396      -1002.8672     -1103.9094     -961.16882     -8.770946       2.3710789      66.866203      13372.141    
     13000   409.90577      0.0065         0.10857781     0.11841345     0.10449777    -1090.5141      702.58847      702.58847      702.58847      3.4681914e+08  1.7331804     -42031175      -42031175       1220.6294     -42029955      -1071.5797     -1168.6499     -1031.3128     -7.981913       2.4420095      65.791656      13389.62     
     14000   402.69043      0.007          0.11529906     0.12493227     0.11144161    -1156.914       702.9375       702.9375       702.9375       3.4733627e+08  1.7306        -42023177      -42023177       1199.1433     -42021978      -1137.9132     -1232.9857     -1099.8431     -6.9717468      2.7879029      64.068277      13275.591    
     15000   396.74307      0.0075         0.12186625     0.13158846     0.11815784    -1222.5102      703.28652      703.28652      703.28652      3.4785391e+08  1.7280247     -42014663      -42014663       1181.4331     -42013482      -1202.7264     -1298.6772     -1166.1272     -6.0063373      3.2115132      62.23721       13350.99     
     16000   392.0063       0.008          0.12824932     0.13823637     0.12475685    -1287.0879      703.63555      703.63555      703.63555      3.4837206e+08  1.7254545     -42005640      -42005640       1167.3278     -42004472      -1265.7223     -1364.2869     -1231.2544     -5.7259766      3.1142001      61.513076      12979.185    
     17000   388.07517      0.0085         0.13462973     0.14467444     0.13138824    -1351.073       703.98457      703.98457      703.98457      3.4889073e+08  1.7228894     -41996111      -41996111       1155.6216     -41994955      -1328.6921     -1427.8257     -1296.7011     -5.8012329      2.7197866      61.120541      13071.527    
     18000   385.04196      0.009          0.14110074     0.15087172     0.13793488    -1414.2852      704.3336       704.3336       704.3336       3.4940991e+08  1.7203294     -41986091      -41986091       1146.5892     -41984945      -1392.556      -1488.9881     -1361.3115     -5.8223655      2.3795643      60.428081      13069.59     
     19000   382.93462      0.0095         0.14750683     0.15699785     0.14432661    -1476.5401      704.68262      704.68262      704.68262      3.4992961e+08  1.7177745     -41975588      -41975588       1140.3139     -41974448      -1455.7792     -1549.4483     -1424.3929     -5.6345069      1.1829161      59.641312      13100.468    
     20000   381.75392      0.01           0.15369297     0.16300077     0.15058872    -1537.2398      705.03165      705.03165      705.03165      3.5044982e+08  1.7152246     -41964600      -41964600       1136.798      -41963463      -1516.8317     -1608.6925     -1486.1951     -5.2014854     -0.66015778     57.676523      13088.404    
     21000   381.42481      0.0105         0.1596781      0.16882015     0.1567452     -1596.3268      705.38068      705.38068      705.38068      3.5097055e+08  1.7126797     -41953140      -41953140       1135.8179     -41952004      -1575.9003     -1666.1253     -1546.9548     -4.5798838     -1.9060477      54.99628       13011.972    
     22000   381.47005      0.011          0.16542049     0.17442576     0.16272868    -1653.343       705.7297       705.7297       705.7297       3.5149179e+08  1.7101399     -41941231      -41941231       1135.9527     -41940095      -1632.5734     -1721.4484     -1606.0072     -4.1045591     -2.1336329      53.141275      13047.996    
     23000   381.6638       0.0115         0.17087198     0.17974702     0.16845527    -1707.6216      706.07873      706.07873      706.07873      3.5201355e+08  1.7076051     -41928894      -41928894       1136.5296     -41927758      -1686.3753     -1773.9652     -1662.5242     -3.7139546     -1.3900393      52.287786      13106.22     
     24000   382.02926      0.012          0.17622392     0.18489776     0.17390557    -1760.1028      706.42775      706.42775      706.42775      3.5253583e+08  1.7050753     -41916147      -41916147       1137.6179     -41915010      -1739.1949     -1824.799      -1716.3146     -3.2734836     -0.65311838     52.046492      13082.88     
     25000   382.45458      0.0125         0.18163997     0.19015106     0.1791879     -1812.5798      706.77678      706.77678      706.77678      3.5305862e+08  1.7025506     -41902989      -41902989       1138.8844     -41901850      -1792.6471     -1876.6451     -1768.4471     -2.5716569     -0.19369057     51.409591      12881.274    
     26000   382.77383      0.013          0.18700599     0.19538665     0.18442472    -1864.6841      707.1258       707.1258       707.1258       3.5358192e+08  1.7000307     -41889413      -41889413       1139.8351     -41888273      -1845.6056     -1928.3164     -1820.1305     -1.2724988     -0.14769107     50.9388        13069.011    
     27000   383.42911      0.0135         0.19226677     0.20041224     0.18969188    -1915.8513      707.47483      707.47483      707.47483      3.5410575e+08  1.6975159     -41875423      -41875423       1141.7864     -41874281      -1897.5255     -1977.915      -1872.1133     -1.0213619     -1.2864364      50.309808      13101.63     
     28000   384.70804      0.014          0.19743773     0.20532437     0.19508273    -1966.7566      707.82385      707.82385      707.82385      3.5463009e+08  1.695006      -41861037      -41861037       1145.5949     -41859891      -1948.5588     -2026.3939     -1925.3169     -2.3326673     -2.9269019      48.568132      13072.604    
     29000   386.69776      0.0145         0.20239074     0.21014498     0.20027061    -2015.9761      708.17288      708.17288      708.17288      3.5515495e+08  1.6925011     -41846274      -41846274       1151.5199     -41845122      -1997.4413     -2073.9697     -1976.5173     -3.5377738     -2.9977968      46.84093       13070.691    
     30000   389.11855      0.015          0.20715581     0.21481049     0.20515968    -2063.0841      708.52191      708.52191      708.52191      3.5568033e+08  1.6900011     -41831139      -41831139       1158.7286     -41829980      -2044.4689     -2120.0147     -2024.7686     -2.7767548     -2.0139381      45.567363      13024.801    
     31000   391.33938      0.0155         0.21186555     0.21933712     0.20994184    -2109.2015      708.87093      708.87093      708.87093      3.5620622e+08  1.687506      -41815637      -41815637       1165.3418     -41814472      -2090.9504     -2164.6891     -2071.9649     -1.168622      -2.2912956      44.835156      13155.096    
     32000   393.33563      0.016          0.21637907     0.22373388     0.21440644    -2153.2014      709.21996      709.21996      709.21996      3.5673264e+08  1.6850158     -41799782      -41799782       1171.2863     -41798611      -2135.4954     -2208.0817     -2116.027       0.052467548   -3.4259708      44.050845      13070.398    
     33000   395.15042      0.0165         0.22075524     0.22803368     0.21863449    -2195.6523      709.56898      709.56898      709.56898      3.5725957e+08  1.6825306     -41783578      -41783578       1176.6905     -41782401      -2178.6849     -2250.5174     -2157.7546      0.50458889    -3.3794029      43.544991      13083.68     
     34000   396.45367      0.017          0.22505481     0.23217215     0.22292051    -2237.5112      709.91801      709.91801      709.91801      3.5778702e+08  1.6800502     -41767029      -41767029       1180.5713     -41765848      -2221.1183     -2291.3609     -2200.0543     -0.088304948   -2.3982028      43.421217      13061.084    
     35000   397.68553      0.0175         0.22921018     0.23612388     0.2271803     -2278.1951      710.26703      710.26703      710.26703      3.5831499e+08  1.6775747     -41750154      -41750154       1184.2396     -41748970      -2262.1286     -2330.3615     -2242.0952     -0.7491151     -2.280709       42.936388      13054.896    
     36000   399.56154      0.018          0.23322368     0.23998368     0.23149518    -2318.2911      710.61606      710.61606      710.61606      3.5884347e+08  1.675104      -41732971      -41732971       1189.826      -41731781      -2301.7387     -2368.4547     -2284.6798     -1.0728926     -2.7429716      42.598319      13244.212    
     37000   401.67647      0.0185         0.23722329     0.24386728     0.235774      -2358.3011      710.96508      710.96508      710.96508      3.5937248e+08  1.6726382     -41715475      -41715475       1196.1239     -41714279      -2341.2119     -2406.7829     -2326.9084     -0.6888404     -2.4241107      42.255176      12969.227    
     38000   403.25724      0.019          0.24110706     0.24758025     0.23971068    -2396.2431      711.31411      711.31411      711.31411      3.5990201e+08  1.6701772     -41697666      -41697666       1200.8312     -41696465      -2379.5416     -2443.4271     -2365.7605      0.59893906    -2.1148878      41.153122      13053.582    
     39000   404.6494       0.0195         0.24466653     0.25117975     0.24330478    -2431.6179      711.66314      711.66314      711.66314      3.6043206e+08  1.6677211     -41679551      -41679551       1204.9768     -41678346      -2414.6709     -2478.9514     -2401.2315      1.6302236     -2.7117685      39.594899      12970.197    
     40000   406.54569      0.02           0.24824508     0.2548074      0.24673119    -2466.5965      712.01216      712.01216      712.01216      3.6096262e+08  1.6652698     -41661145      -41661145       1210.6236     -41659935      -2449.9885     -2514.7535     -2435.0475      1.7410533     -3.5440866      37.99136       13188.227    
     41000   409.0631       0.0205         0.25198137     0.2583149      0.25026311    -2502.0458      712.36119      712.36119      712.36119      3.6149371e+08  1.6628232     -41642465      -41642465       1218.1201     -41641247      -2486.8627     -2549.3698     -2469.9048      1.879694      -3.6670015      37.221309      13013.812    
     42000   411.23769      0.021          0.25564458     0.26152144     0.25398148    -2536.878       712.71021      712.71021      712.71021      3.6202532e+08  1.6603815     -41623515      -41623515       1224.5956     -41622290      -2523.0158     -2581.0159     -2506.6023      2.5410997     -2.727747       37.026349      12975.463    
     43000   412.633        0.0215         0.25900623     0.26455956     0.25753193    -2569.6117      713.05924      713.05924      713.05924      3.6255745e+08  1.6579445     -41604293      -41604293       1228.7506     -41603065      -2556.1927     -2610.9999     -2541.6426      2.7728485     -2.595181       36.975952      13131.394    
     44000   413.87263      0.022          0.26209415     0.26757911     0.26076442    -2600.3378      713.40826      713.40826      713.40826      3.630901e+08   1.6555124     -41584809      -41584809       1232.442      -41583577      -2586.6681     -2640.8005     -2573.5447      2.1938338     -3.7984598      36.85853       13044.887    
     45000   415.35244      0.0225         0.26501885     0.27050687     0.26377951    -2629.5098      713.75729      713.75729      713.75729      3.6362327e+08  1.6530849     -41565070      -41565070       1236.8486     -41563833      -2615.5327     -2669.6953     -2603.3014      2.6329369     -3.7415534      36.258512      13074.626    
     46000   417.00887      0.023          0.26803146     0.27330741     0.26675094    -2658.4088      714.10631      714.10631      714.10631      3.6415696e+08  1.6506622     -41545083      -41545083       1241.7812     -41543841      -2645.2649     -2697.3344     -2632.6271      4.7158695     -2.0739803      35.232939      13012.571    
     47000   418.29944      0.0235         0.27117505     0.27607919     0.26973545    -2687.6871      714.45534      714.45534      714.45534      3.6469118e+08  1.6482443     -41524863      -41524863       1245.6243     -41523617      -2676.2897     -2724.6898     -2662.0819      6.1768506     -1.3783401      34.096442      13076.134    
     48000   419.18001      0.024          0.27411181     0.27874141     0.27259154    -2715.5021      714.80437      714.80437      714.80437      3.6522592e+08  1.645831      -41504411      -41504411       1248.2465     -41503163      -2705.2733     -2750.9638     -2690.2693      6.3676028     -2.3742825      33.185645      13119.986    
     49000   420.73681      0.0245         0.27668908     0.28122822     0.27519188    -2740.7161      715.15339      715.15339      715.15339      3.6576118e+08  1.6434225     -41483742      -41483742       1252.8824     -41482489      -2730.7089     -2775.5067     -2715.9327      5.8447813     -3.5267308      32.253101      13056.576    
     50000   423.07675      0.025          0.27912547     0.28367773     0.27777948    -2765.302       715.50242      715.50242      715.50242      3.6629696e+08  1.6410186     -41462871      -41462871       1259.8503     -41461612      -2754.7542     -2799.6815     -2741.4703      4.5792326     -4.0500719      31.027989      12572.509    
     51000   424.77812      0.0255         0.2816341      0.28607184     0.28051949    -2790.4447      715.85144      715.85144      715.85144      3.6683327e+08  1.6386195     -41441791      -41441791       1264.9167     -41440526      -2779.5125     -2823.3096     -2768.5121      3.8326266     -4.7867984      29.60052       12903.441    
     52000   425.57537      0.026          0.28413274     0.28826996     0.28302119    -2814.1258      716.20047      716.20047      716.20047      3.673701e+08   1.636225      -41420499      -41420499       1267.2908     -41419231      -2804.1722     -2845.0033     -2793.202       3.3260842     -5.7748742      29.10211       13043.76     
     53000   426.35165      0.0265         0.28652353     0.29022346     0.28536425    -2836.1255      716.54949      716.54949      716.54949      3.6790745e+08  1.6338352     -41399008      -41399008       1269.6024     -41397739      -2827.7674     -2864.2828     -2816.3262      3.3069882     -5.1811981      29.357007      12706.363    
     54000   427.22618      0.027          0.28861829     0.29212227     0.28769347    -2856.9258      716.89852      716.89852      716.89852      3.6844533e+08  1.6314501     -41377335      -41377335       1272.2066     -41376063      -2848.4411     -2883.0226     -2839.3138      3.8587966     -3.3229835      28.995584      12920.436    
     55000   428.34399      0.0275         0.2905408      0.29404207     0.2898426     -2876.6361      717.24755      717.24755      717.24755      3.6898373e+08  1.6290695     -41355487      -41355487       1275.5353     -41354212      -2867.4148     -2901.9696     -2860.5241      4.2132449     -2.3582026      28.032558      13130.72     
     56000   429.66752      0.028          0.29263736     0.2959293      0.29183528    -2896.2972      717.59657      717.59657      717.59657      3.6952265e+08  1.6266936     -41333474      -41333474       1279.4765     -41332195      -2888.1061     -2920.5951     -2880.1902      4.2520545     -2.2211419      27.476815      12924.606    
     57000   430.79007      0.0285         0.29477423     0.29781244     0.29378864    -2915.9481      717.9456       717.9456       717.9456       3.700621e+08   1.6243224     -41311291      -41311291       1282.8193     -41310008      -2909.1955     -2939.1803     -2899.4685      4.6982425     -3.0558407      27.355042      13151.374    
     58000   431.72123      0.029          0.29676783     0.29955169     0.29563081    -2934.2884      718.29462      718.29462      718.29462      3.7060207e+08  1.6219557     -41288941      -41288941       1285.5921     -41287655      -2928.8707     -2956.3453     -2917.6492      5.3164732     -3.8412102      26.383157      12899.28     
     59000   432.66566      0.0295         0.29851231     0.30108697     0.29732559    -2950.6534      718.64365      718.64365      718.64365      3.7114257e+08  1.6195936     -41266442      -41266442       1288.4044     -41265153      -2946.0874     -2971.4974     -2934.3754      4.9681344     -3.6913324      24.357893      13039.401    
     60000   433.40515      0.03           0.30003909     0.30243433     0.29904668    -2965.7705      718.99267      718.99267      718.99267      3.716836e+08   1.6172361     -41243798      -41243798       1290.6065     -41242507      -2961.1555     -2984.7948     -2951.3613      3.9185126     -3.8492315      23.107009      12944.947    
     61000   433.95435      0.0305         0.30149561     0.30357511     0.30083088    -2980.1846      719.3417       719.3417       719.3417       3.7222515e+08  1.6148832     -41221007      -41221007       1292.242      -41219715      -2975.5303     -2996.0534     -2968.9699      3.6876143     -4.1561854      23.675713      12960.775    
     62000   434.62396      0.031          0.3029979      0.30476927     0.30255635    -2994.7315      719.69072      719.69072      719.69072      3.7276722e+08  1.6125349     -41198087      -41198087       1294.2359     -41196793      -2990.3567     -3007.8389     -2985.999       4.8581062     -3.8290596      24.528687      13143.265    
     63000   435.44536      0.0315         0.30451442     0.30601813     0.30393508    -3008.3646      720.03975      720.03975      720.03975      3.7330982e+08  1.6101911     -41175051      -41175051       1296.6819     -41173755      -3005.3237     -3020.1642     -2999.606       5.5602554     -2.820461       24.163982      12923.048    
     64000   436.12619      0.032          0.30601729     0.30728106     0.30507296    -3021.2067      720.38878      720.38878      720.38878      3.7385295e+08  1.6078518     -41151892      -41151892       1298.7093     -41150593      -3020.1559     -3032.6282     -3010.8361      5.0288617     -2.2848485      22.30476       13001.705    
     65000   436.78667      0.0325         0.30719745     0.30840109     0.30633008    -3032.9094      720.7378       720.7378       720.7378       3.743966e+08   1.6055171     -41128612      -41128612       1300.6761     -41127311      -3031.8032     -3043.6821     -3023.2428      4.6027054     -2.9373924      20.031329      12930.22     
     66000   437.38553      0.033          0.30813886     0.30935272     0.30764375    -3043.4586      721.08683      721.08683      721.08683      3.7494078e+08  1.6031869     -41105223      -41105223       1302.4594     -41103920      -3041.0941     -3053.0739     -3036.2077      4.4570935     -3.6068903      19.101399      13125.99     
     67000   437.43063      0.0335         0.30919081     0.31033845     0.30881888    -3054.0279      721.43585      721.43585      721.43585      3.7548549e+08  1.6008612     -41081731      -41081731       1302.5937     -41080428      -3051.4761     -3062.8024     -3047.8053      4.108807      -3.234261       19.013422      13073.758    
     68000   436.68568      0.034          0.31024775     0.31117751     0.30979961    -3063.4916      721.78488      721.78488      721.78488      3.7603073e+08  1.59854       -41058139      -41058139       1300.3754     -41056838      -3061.9072     -3071.0832     -3057.4845      3.6579571     -2.6594083      18.698965      13003.993    
     69000   436.09822      0.0345         0.31112735     0.31175591     0.3106459     -3071.0722      722.1339       722.1339       722.1339       3.7657649e+08  1.5962232     -41034454      -41034454       1298.626      -41033156      -3070.5882     -3076.7916     -3065.8367      2.9939128     -2.4147622      18.280322      13142.341    
     70000   436.33405      0.035          0.31191128     0.31234093     0.31147378    -3078.2992      722.48293      722.48293      722.48293      3.7712278e+08  1.593911      -41010690      -41010690       1299.3283     -41009391      -3078.325      -3082.5653     -3074.0072      2.3097572     -3.0098465      17.431065      13120.488    
     71000   436.99418      0.0355         0.31266397     0.31307397     0.31229842    -3085.8997      722.83195      722.83195      722.83195      3.776696e+08   1.5916032     -40986848      -40986848       1301.294      -40985546      -3085.7535     -3089.7999     -3082.1458      1.9886247     -3.8503343      16.52954       13109.206    
     72000   437.48759      0.036          0.31333553     0.31381035     0.31309846    -3093.1634      723.18098      723.18098      723.18098      3.7821695e+08  1.5892999     -40962923      -40962923       1302.7633     -40961620      -3092.3812     -3097.0673     -3090.0415      1.9111666     -3.8132045      15.179503      13021.879    
     73000   437.58903      0.0365         0.31386518     0.31426551     0.31376604    -3098.5993      723.53001      723.53001      723.53001      3.7876482e+08  1.587001      -40938929      -40938929       1303.0654     -40937626      -3097.6085     -3101.5594     -3096.6301      1.8158838     -3.3960735      13.9761        13008.544    
     74000   437.57011      0.037          0.31416809     0.31432881     0.31426484    -3101.445       723.87903      723.87903      723.87903      3.7931323e+08  1.5847065     -40914882      -40914882       1303.0091     -40913579      -3100.598      -3102.1842     -3101.5528      1.7028623     -2.8876763      13.475373      13237.086    
     75000   437.59437      0.0375         0.31442122     0.31440311     0.31461974    -3103.6897      724.22806      724.22806      724.22806      3.7986216e+08  1.5824165     -40890792      -40890792       1303.0813     -40889489      -3103.0962     -3102.9175     -3105.0554      2.3724088     -2.6876913      13.416955      12993.992    
     76000   437.48906      0.038          0.31464662     0.3146515      0.31482621    -3105.9275      724.57708      724.57708      724.57708      3.8041163e+08  1.5801309     -40866663      -40866663       1302.7677     -40865361      -3105.3207     -3105.3688     -3107.0931      3.2105229     -2.8114261      12.815564      13150.074    
     77000   437.19503      0.0385         0.31489776     0.31483438     0.31498521    -3107.8784      724.92611      724.92611      724.92611      3.8096162e+08  1.5778496     -40842495      -40842495       1301.8921     -40841193      -3107.7993     -3107.1738     -3108.6623      2.4575416     -2.8665875      12.00286       12975.296    
     78000   436.77289      0.039          0.31521646     0.31482663     0.31516306    -3109.4864      725.27513      725.27513      725.27513      3.8151214e+08  1.5755728     -40818285      -40818285       1300.6351     -40816985      -3110.9446     -3107.0972     -3110.4175     -0.14569177    -2.6687153      11.776086      13077.1      
     79000   436.36855      0.0395         0.3154107      0.31474411     0.31539588    -3110.6199      725.62416      725.62416      725.62416      3.8206319e+08  1.5733003     -40794041      -40794041       1299.431      -40792742      -3112.8616     -3106.2829     -3112.7153     -2.7260641     -2.8700045      11.498293      13191.74     
     80000   436.00753      0.04           0.3154186      0.3146944      0.31559199    -3111.1275      725.97318      725.97318      725.97318      3.8261478e+08  1.5710322     -40769768      -40769768       1298.356      -40768470      -3112.9396     -3105.7922     -3114.6508     -2.7208116     -3.2816732      9.9809148      12961.971    
     81000   435.57334      0.0405         0.31539268     0.31473165     0.31568039    -3111.4556      726.32221      726.32221      726.32221      3.8316689e+08  1.5687685     -40745472      -40745472       1297.063      -40744175      -3112.6838     -3106.1599     -3115.5232     -0.53320262    -3.7202676      7.9571765      13154.045    
     82000   435.19509      0.041          0.31523795     0.31463193     0.31566372    -3110.5637      726.67124      726.67124      726.67124      3.8371953e+08  1.5665091     -40721157      -40721157       1295.9367     -40719861      -3111.1567     -3105.1757     -3115.3587      0.64359936    -3.9078686      6.3469464      13009.521    
     83000   434.82614      0.0415         0.314851       0.31428725     0.31543074    -3107.3904      727.02026      727.02026      727.02026      3.8427271e+08  1.5642541     -40696827      -40696827       1294.838      -40695532      -3107.3377     -3101.774      -3113.0594     -0.79539443    -3.2408882      5.7441072      13155.793    
     84000   434.4535       0.042          0.31432093     0.31363174     0.3150333     -3102.1827      727.36929      727.36929      727.36929      3.8482642e+08  1.5620033     -40672503      -40672503       1293.7283     -40671209      -3102.1064     -3095.3046     -3109.137      -2.94753       -1.8263396      6.1131699      13046.206    
     85000   434.08049      0.0425         0.31395707     0.31294698     0.31472696    -3097.7252      727.71831      727.71831      727.71831      3.8538066e+08  1.5597569     -40648195      -40648195       1292.6176     -40646902      -3098.5153     -3088.5466     -3106.1136     -3.629047      -0.90451681     5.0912045      12989.599    
     86000   433.31279      0.043          0.31368851     0.31246684     0.31436336    -3094.066       728.06734      728.06734      728.06734      3.8593543e+08  1.5575148     -40623899      -40623899       1290.3315     -40622609      -3095.8649     -3083.8079     -3102.5251     -3.5965031     -1.4183204      4.1228845      13134.756    
     87000   432.55108      0.0435         0.31322535     0.31202098     0.31388887    -3089.5146      728.41636      728.41636      728.41636      3.8649073e+08  1.555277      -40599617      -40599617       1288.0633     -40598329      -3091.2938     -3079.4076     -3097.8423     -3.9510787     -1.7842207      4.4033567      13095.444    
     88000   432.02107      0.044          0.312666       0.31144191     0.31350351    -3084.5017      728.76539      728.76539      728.76539      3.8704656e+08  1.5530435     -40575347      -40575347       1286.485      -40574061      -3085.7735     -3073.6927     -3094.0391     -4.3373542     -2.0713138      4.6732913      13072.822    
     89000   431.38588      0.0445         0.31211345     0.31079996     0.31315441    -3079.4237      729.11441      729.11441      729.11441      3.8760293e+08  1.5508142     -40551088      -40551088       1284.5935     -40549804      -3080.3203     -3067.3571     -3090.5937     -4.8133896     -2.7093118      3.647583       13038.649    
     90000   430.66651      0.045          0.31149211     0.31014934     0.31250492    -3073.1026      729.46344      729.46344      729.46344      3.8815983e+08  1.5485893     -40526845      -40526845       1282.4513     -40525562      -3074.1881     -3060.936      -3084.1838     -4.5847243     -2.679625       1.7663311      13043.434    
     91000   429.85775      0.0455         0.3107541      0.30933088     0.31158733    -3064.9636      729.81247      729.81247      729.81247      3.8871727e+08  1.5463685     -40502644      -40502644       1280.043      -40501364      -3066.9045     -3052.8584     -3075.1279     -3.698737      -1.6943336     -0.25519517     13221.407    
     92000   428.99274      0.046          0.30977214     0.30823835     0.31062653    -3054.9783      730.16149      730.16149      730.16149      3.8927523e+08  1.544152      -40478501      -40478501       1277.4671     -40477224      -3057.2133     -3042.076      -3065.6455     -3.271439      -1.2023756     -1.1063263      12989.281    
     93000   428.04757      0.0465         0.3086971      0.30706472     0.30983361    -3044.9722      730.51052      730.51052      730.51052      3.8983373e+08  1.5419398     -40454409      -40454409       1274.6526     -40453134      -3046.6035     -3030.4932     -3057.82       -3.7085441     -1.1607656     -0.65933068     13146.903    
     94000   427.10057      0.047          0.30775853     0.30608548     0.3089906     -3035.8898      730.85954      730.85954      730.85954      3.9039277e+08  1.5397318     -40430360      -40430360       1271.8326     -40429088      -3037.3405     -3020.8288     -3049.5001     -5.125515      -0.77703457    -0.037542457    13014.906    
     95000   426.28321      0.0475         0.30698978     0.30517658     0.30813408    -3027.5531      731.20857      731.20857      731.20857      3.9095234e+08  1.5375279     -40406352      -40406352       1269.3986     -40405083      -3029.7536     -3011.8587     -3041.047      -6.0471258     -0.11704284    -1.1589333      13154.267    
     96000   425.40207      0.048          0.30632815     0.30418841     0.30735862    -3019.5746      731.55759      731.55759      731.55759      3.9151244e+08  1.5353283     -40382387      -40382387       1266.7747     -40381120      -3023.2238     -3002.1062     -3033.3937     -5.4047624      0.028037273   -2.6598425      13114.994    
     97000   424.529        0.0485         0.30537697     0.30306238     0.30637992    -3009.5214      731.90662      731.90662      731.90662      3.9207308e+08  1.5331329     -40358480      -40358480       1264.1749     -40357216      -3013.8364     -2990.9932     -3023.7347     -4.1194805     -0.54020632    -2.6588703      13007.591    
     98000   424.03868      0.049          0.3040347      0.30173376     0.30507482    -2996.4414      732.25564      732.25564      732.25564      3.9263425e+08  1.5309417     -40334645      -40334645       1262.7148     -40333383      -3000.5892     -2977.8807     -3010.8544     -3.148087      -1.7939255     -1.8530885      13137.687    
     99000   423.13054      0.0495         0.30258453     0.30030459     0.30364801    -2982.2753      732.60467      732.60467      732.60467      3.9319596e+08  1.5287546     -40310897      -40310897       1260.0105     -40309637      -2986.2771     -2963.7759     -2996.7729     -2.7404038     -3.1690167     -2.1055435      13019.962    
    100000   421.55853      0.05           0.3011466      0.29894308     0.30223879    -2968.4299      732.9537       732.9537       732.9537       3.9375821e+08  1.5265717     -40287231      -40287231       1255.3293     -40285976      -2972.0859     -2950.3388     -2982.865      -3.2136209     -3.5001594     -4.0026339      12834.123    
    101000   420.06985      0.0505         0.29976915     0.29763823     0.30088876    -2955.1645      733.30272      733.30272      733.30272      3.9432098e+08  1.524393      -40263644      -40263644       1250.8963     -40262393      -2958.4915     -2937.461      -2969.5411     -4.2626974     -2.781084      -5.4256062      13031.179    
    102000   419.02651      0.051          0.29842046     0.29624224     0.29966604    -2942.1128      733.65175      733.65175      733.65175      3.948843e+08   1.5222184     -40240140      -40240140       1247.7894     -40238892      -2945.1809     -2923.6836     -2957.4739     -4.8945508     -1.8552587     -5.9746636      13030.802    
    103000   417.92039      0.0515         0.29714386     0.29478375     0.29849793    -2929.2723      734.00077      734.00077      734.00077      3.9544815e+08  1.5200479     -40216717      -40216717       1244.4956     -40215473      -2932.5819     -2909.2894     -2945.9456     -4.0756175     -0.94092931    -6.639032       13130.817    
    104000   416.97681      0.052          0.29574983     0.29325902     0.29706587    -2914.9592      734.3498       734.3498       734.3498       3.9601254e+08  1.5178816     -40193383      -40193383       1241.6857     -40192141      -2918.8239     -2894.2415     -2931.8121     -2.3566274     -0.21101407    -7.6104333      13080.421    
    105000   416.68923      0.0525         0.29430042     0.29175726     0.29546059    -2899.9696      734.69882      734.69882      734.69882      3.9657747e+08  1.5157194     -40170149      -40170149       1240.8294     -40168908      -2904.5194     -2879.4203     -2915.9693     -1.5025593     -0.14010719    -8.1830165      13148.264    
    106000   416.08517      0.053          0.29295351     0.29037828     0.2939857     -2886.1502      735.04785      735.04785      735.04785      3.9714293e+08  1.5135612     -40147007      -40147007       1239.0306     -40145768      -2891.2264     -2865.8108     -2901.4133     -2.0805774     -0.897742      -8.2490564      12947.328    
    107000   414.52144      0.0535         0.29148449     0.28888942     0.2925404     -2871.6648      735.39687      735.39687      735.39687      3.9770893e+08  1.5114072     -40123952      -40123952       1234.3741     -40122717      -2876.7282     -2851.1169     -2887.1492     -2.1157006     -2.484844      -8.1556792      12999.591    
    108000   412.67726      0.054          0.28961897     0.28718427     0.29080401    -2854.2059      735.7459       735.7459       735.7459       3.9827546e+08  1.5092573     -40100999      -40100999       1228.8824     -40099770      -2858.317      -2834.2884     -2870.0124     -1.2440429     -3.4562115     -9.0307198      13118.114    
    109000   411.06695      0.0545         0.28765649     0.28540055     0.28890825    -2835.6453      736.09493      736.09493      736.09493      3.9884254e+08  1.5071114     -40078172      -40078172       1224.0872     -40076948      -2838.9488     -2816.6844     -2851.3027     -1.3782733     -2.8378041     -9.3214658      12884.766    
    110000   409.38144      0.055          0.28578101     0.28357615     0.28716137    -2817.7269      736.44395      736.44395      736.44395      3.9941015e+08  1.5049696     -40055472      -40055472       1219.068      -40054253      -2820.4393     -2798.679      -2834.0624     -2.6579507     -2.7517233     -8.6193161      13105.303    
    111000   407.71992      0.0555         0.28394473     0.28178039     0.28554356    -2800.4562      736.79298      736.79298      736.79298      3.999783e+08   1.5028319     -40032884      -40032884       1214.1203     -40031670      -2802.3166     -2780.9562     -2818.0958     -2.7328743     -4.0190886     -8.3955153      12966.023    
    112000   406.35962      0.056          0.2822852      0.28002275     0.28380666    -2783.5006      737.142        737.142        737.142        4.0054699e+08  1.5006982     -40010412      -40010412       1210.0696     -40009202      -2785.9383     -2763.6097     -2800.9539     -1.1582789     -5.0741167     -9.5105758      13186.323    
    113000   405.178        0.0565         0.28066809     0.2782054      0.28196082    -2766.1298      737.49103      737.49103      737.49103      4.0111622e+08  1.4985685     -39988056      -39988056       1206.5509     -39986850      -2769.9787     -2745.6739     -2782.7369      1.1919876     -5.0957887     -10.602789      12987.34     
    114000   404.11536      0.057          0.27889829     0.27639894     0.2801094     -2748.2741      737.84005      737.84005      737.84005      4.0168599e+08  1.4964429     -39965823      -39965823       1203.3865     -39964619      -2752.5121     -2727.8454     -2764.4649      2.495316      -4.5551156     -9.8661343      13009.96     
    115000   403.35466      0.0575         0.2770141      0.2746087      0.27831056    -2730.2685      738.18908      738.18908      738.18908      4.0225629e+08  1.4943213     -39943712      -39943712       1201.1213     -39942511      -2733.9166     -2710.1772     -2746.7117      2.4037861     -4.378932      -7.8728909      13065.512    
    116000   402.17441      0.058          0.27514878     0.27283123     0.27656673    -2712.5479      738.5381       738.5381       738.5381       4.0282714e+08  1.4922037     -39921725      -39921725       1197.6067     -39920527      -2715.5074     -2692.6349     -2729.5014      1.4670912     -5.1819874     -7.7441435      12984.597    
    117000   400.11868      0.0585         0.27320059     0.27095167     0.27460794    -2693.5116      738.88713      738.88713      738.88713      4.0339853e+08  1.4900901     -39899861      -39899861       1191.4851     -39898669      -2696.2802     -2674.0851     -2710.1697      0.48176487    -6.9160903     -9.7979994      13188.454    
    118000   398.09625      0.059          0.27110495     0.26888035     0.27251639    -2672.9228      739.23616      739.23616      739.23616      4.0397045e+08  1.4879805     -39878131      -39878131       1185.4627     -39876946      -2675.5979     -2653.6427     -2689.5277      0.17406591    -8.582336      -11.437638      12932.185    
    119000   397.02478      0.0595         0.26896827     0.26681048     0.27056011    -2652.6486      739.58518      739.58518      739.58518      4.0454292e+08  1.4858748     -39856553      -39856553       1182.272      -39855371      -2654.5105     -2633.2147     -2670.2207      0.6631057     -9.2241194     -11.307441      12990.765    
    120000   396.22204      0.06           0.26691449     0.26496618     0.2687553     -2633.8876      739.93421      739.93421      739.93421      4.0511592e+08  1.4837732     -39835121      -39835121       1179.8816     -39833942      -2634.2412     -2615.0129     -2652.4086      1.4414087     -9.174762      -10.533873      13034.933    
    121000   394.80579      0.0605         0.26484485     0.26321825     0.2669248     -2615.3068      740.28323      740.28323      740.28323      4.0568947e+08  1.4816755     -39813819      -39813819       1175.6642     -39812643      -2613.8154     -2597.7622     -2634.3429      2.1916182     -8.5453204     -9.8317409      13097.292    
    122000   393.10863      0.061          0.2627731      0.26121761     0.26488958    -2595.2144      740.63226      740.63226      740.63226      4.0626356e+08  1.4795817     -39792645      -39792645       1170.6104     -39791474      -2593.3689     -2578.0174     -2614.2568      2.9457215     -8.1009797     -9.1907192      13120.199    
    123000   391.79612      0.0615         0.26089028     0.25897264     0.26274253    -2574.5718      740.98128      740.98128      740.98128      4.0683819e+08  1.4774919     -39771611      -39771611       1166.7019     -39770444      -2574.7869     -2555.8613     -2593.0672      2.7501545     -8.2154131     -8.9257504      12987.313    
    124000   390.45883      0.062          0.25914662     0.25684513     0.26082367    -2555.524       741.33031      741.33031      741.33031      4.0741336e+08  1.4754061     -39750720      -39750720       1162.7197     -39749558      -2557.5783     -2534.8643     -2574.1294      2.1505274     -9.2102424     -8.5083266      13089.645    
    125000   388.53395      0.0625         0.25713084     0.25503257     0.25902189    -2537.0024      741.67933      741.67933      741.67933      4.0798908e+08  1.4733241     -39729962      -39729962       1156.9878     -39728806      -2537.6841     -2516.9758     -2556.3473      1.596939      -10.70686      -7.7779806      13145.935    
    126000   386.57381      0.063          0.25488275     0.25326125     0.25703727    -2517.2507      742.02836      742.02836      742.02836      4.0856533e+08  1.4712461     -39709339      -39709339       1151.1508     -39708188      -2515.4971     -2499.4942     -2536.7606      1.3974523     -12.64209      -7.0948947      13011.091    
    127000   385.23231      0.0635         0.25271194     0.25129618     0.25490203    -2496.6203      742.37739      742.37739      742.37739      4.0914213e+08  1.469172      -39688866      -39688866       1147.156      -39687718      -2494.0729     -2480.1005     -2515.6874      1.7579182     -14.127319     -7.0845398      13090.439    
    128000   384.09361      0.064          0.25064258     0.2492232      0.25290733    -2476.431       742.72641      742.72641      742.72641      4.0971947e+08  1.4671017     -39668540      -39668540       1143.7652     -39667397      -2473.6499     -2459.6417     -2496.0013      2.5603442     -14.411588     -7.6731073      12955.741    
    129000   382.6863       0.0645         0.24862943     0.24712265     0.25113251    -2457.0593      743.07544      743.07544      743.07544      4.1029735e+08  1.4650354     -39648349      -39648349       1139.5745     -39647209      -2453.7817     -2438.9109     -2478.4852      3.0411077     -14.107206     -7.9755857      13201.505    
    130000   381.04866      0.065          0.2467595      0.24515019     0.24938839    -2438.6811      743.42446      743.42446      743.42446      4.1087578e+08  1.4629729     -39628284      -39628284       1134.6978     -39627149      -2435.3269     -2419.4443     -2461.272       2.7004131     -14.182773     -7.5449497      12964.517    
    131000   379.59714      0.0655         0.24487598     0.24330327     0.24738773    -2419.8272      743.77349      743.77349      743.77349      4.1145475e+08  1.4609143     -39608355      -39608355       1130.3755     -39607225      -2416.738      -2401.2166     -2441.5271      1.7299456     -14.332406     -6.5855578      12996.984    
    132000   378.38485      0.066          0.24281865     0.24139504     0.24529509    -2399.8973      744.12251      744.12251      744.12251      4.1203427e+08  1.4588596     -39588575      -39588575       1126.7655     -39587448      -2396.4338     -2382.3838     -2420.8743      0.72156723    -14.177805     -6.2748697      13050.884    
    133000   377.00912      0.0665         0.24068178     0.23933951     0.24331825    -2379.6021      744.47154      744.47154      744.47154      4.1261432e+08  1.4568087     -39568947      -39568947       1122.6688     -39567824      -2375.3445     -2362.0973     -2401.3644      0.64665093    -14.458244     -6.1630676      13078.717    
    134000   375.6985       0.067          0.23862102     0.23725409     0.24128775    -2359.2824      744.82057      744.82057      744.82057      4.1319492e+08  1.4547617     -39549465      -39549465       1118.766      -39548346      -2355.0063     -2341.5158     -2381.325       1.5765007     -15.24893      -5.987215       13214.465    
    135000   374.71874      0.0675         0.23675662     0.2354283      0.23938358    -2340.8783      745.16959      745.16959      745.16959      4.1377607e+08  1.4527185     -39530116      -39530116       1115.8484     -39529000      -2336.6061     -2323.4967     -2362.5323      2.5666995     -16.14029      -6.1620805      13000.064    
    136000   373.47166      0.068          0.23499856     0.23388337     0.23783007    -2324.9017      745.51862      745.51862      745.51862      4.1435776e+08  1.4506791     -39510881      -39510881       1112.1348     -39509769      -2319.2555     -2308.2494     -2347.2003      2.8015503     -16.274753     -6.6968066      13018.627    
    137000   371.77069      0.0685         0.23319093     0.23238098     0.23635081    -2309.1462      745.86764      745.86764      745.86764      4.1494e+08     1.4486435     -39491757      -39491757       1107.0696     -39490650      -2301.4155     -2293.422      -2332.6012      2.8724454     -15.634832     -6.0810408      13117.223    
    138000   369.97622      0.069          0.23143273     0.23082022     0.23472388    -2292.8755      746.21667      746.21667      746.21667      4.1552278e+08  1.4466118     -39472749      -39472749       1101.726      -39471647      -2284.0634     -2278.0185     -2316.5446      3.0588193     -15.437195     -4.581454       13077.884    
    139000   368.43407      0.0695         0.22972353     0.22906279     0.23279979    -2275.1414      746.56569      746.56569      746.56569      4.161061e+08   1.4445838     -39453866      -39453866       1097.1337     -39452769      -2267.195      -2260.674      -2297.5553      1.7104442     -15.944416     -3.7192839      13096.883    
    140000   367.3955       0.07           0.2280531      0.22707878     0.2307459     -2256.3625      746.91472      746.91472      746.91472      4.1668998e+08  1.4425596     -39435120      -39435120       1094.0411     -39434026      -2250.7091     -2241.0933     -2277.285      -0.057432529   -16.530555     -3.5338269      12979.094    
    141000   366.47653      0.0705         0.22629273     0.22507324     0.2289172     -2237.9577      747.26374      747.26374      747.26374      4.1727439e+08  1.4405393     -39416507      -39416507       1091.3045     -39415416      -2233.3356     -2221.3002     -2259.2371     -0.263761      -16.787536     -3.5574681      13021.971    
    142000   365.31012      0.071          0.22445375     0.22328566     0.22736276    -2220.9135      747.61277      747.61277      747.61277      4.1785936e+08  1.4385226     -39398012      -39398012       1087.8312     -39396924      -2215.1863     -2203.6581     -2243.896       0.61942141    -16.787046     -3.8077827      13184.75     
    143000   363.93957      0.0715         0.22273995     0.22174301     0.22588883    -2205.3517      747.9618       747.9618       747.9618       4.1844487e+08  1.4365098     -39379632      -39379632       1083.7499     -39378548      -2198.2724     -2188.4334     -2229.3494      1.6966227     -16.559253     -4.2918532      13011.327    
    144000   362.58476      0.072          0.22118584     0.2203675      0.22438057    -2190.7522      748.31082      748.31082      748.31082      4.1903093e+08  1.4345007     -39361365      -39361365       1079.7155     -39360285      -2182.9345     -2174.8582     -2214.464       1.9743647     -16.194694     -4.6824503      13106.783    
    145000   361.50656      0.0725         0.219692       0.21899956     0.22278498    -2176.0886      748.65985      748.65985      748.65985      4.1961753e+08  1.4324953     -39343206      -39343206       1076.5048     -39342129      -2168.1914     -2161.3576     -2198.7168      1.3504698     -15.799039     -4.639844       12980.608    
    146000   360.5296       0.073          0.21819334     0.21760839     0.22124617    -2161.5195      749.00887      749.00887      749.00887      4.2020468e+08  1.4304937     -39325150      -39325150       1073.5956     -39324077      -2153.4008     -2147.6278     -2183.5299      1.0162736     -15.698945     -4.0929456      13200.944    
    147000   359.48431      0.0735         0.21673252     0.21616347     0.21978275    -2147.1461      749.3579       749.3579       749.3579       4.2079238e+08  1.4284958     -39307194      -39307194       1070.4829     -39306124      -2138.9837     -2133.3675     -2169.0871      1.5315524     -16.090839     -3.1351246      13032.672    
    148000   358.39903      0.074          0.21518917     0.21462796     0.21826458    -2132.023       749.70692      749.70692      749.70692      4.2138063e+08  1.4265016     -39289341      -39289341       1067.2511     -39288274      -2123.752      -2118.2132     -2154.1039      2.3203532     -16.587986     -2.1344322      12972.407    
    149000   357.34604      0.0745         0.2136378      0.21318989     0.21680866    -2117.399       750.05595      750.05595      750.05595      4.2196942e+08  1.4245112     -39271593      -39271593       1064.1155     -39270529      -2108.4412     -2104.0206     -2139.7351      2.3944394     -16.418126     -1.1523279      13143.583    
    150000   356.05079      0.075          0.2123034      0.21196664     0.21552073    -2104.748       750.40497      750.40497      750.40497      4.2255876e+08  1.4225244     -39253940      -39253940       1060.2584     -39252880      -2095.2716     -2091.948      -2127.0242      1.3859314     -16.237278     -0.25929346     12578.442    
    151000   354.51689      0.0755         0.2110895      0.21084043     0.21423811    -2092.8302      750.754        750.754        750.754        4.2314865e+08  1.4205413     -39236371      -39236371       1055.6908     -39235316      -2083.2914     -2080.8333     -2114.3658     -0.012712022   -16.286941     -0.27317284     13178.809    
    152000   353.18504      0.076          0.20966804     0.20956961     0.21273222    -2079.0192      751.10303      751.10303      751.10303      4.2373909e+08  1.4185619     -39218892      -39218892       1051.7248     -39217841      -2069.2627     -2068.2912     -2099.5038     -0.57696714    -15.96742      -1.4354147      12995.037    
    153000   352.21516      0.0765         0.20814867     0.20819446     0.21109111    -2064.0981      751.45205      751.45205      751.45205      4.2433008e+08  1.4165862     -39201512      -39201512       1048.8366     -39200463      -2054.2676     -2054.7195     -2083.3073     -0.40069044    -15.490472     -2.5997512      13020.032    
    154000   351.56357      0.077          0.20681356     0.20689403     0.20952088    -2050.2623      751.80108      751.80108      751.80108      4.2492162e+08  1.4146142     -39184233      -39184233       1046.8963     -39183186      -2041.0912     -2041.8853     -2067.8103      0.21496903    -14.637224     -2.3284707      13057.124    
    155000   350.76831      0.0775         0.20584483     0.20570742     0.2082949     -2039.1386      752.1501       752.1501       752.1501       4.2551371e+08  1.4126458     -39167039      -39167039       1044.5281     -39165995      -2031.5305     -2030.1744     -2055.7108      0.96166679    -13.450713     -0.83828913     13011.504    
    156000   349.28985      0.078          0.20504762     0.20454423     0.20735268    -2029.5897      752.49913      752.49913      752.49913      4.2610635e+08  1.410681      -39149911      -39149911       1040.1255     -39148871      -2023.6627     -2018.6946     -2046.4118      1.1329896     -13.3394        1.0442468      13137.116    
    157000   347.63448      0.0785         0.20396359     0.20325642     0.20629746    -2018.3155      752.84815      752.84815      752.84815      4.2669953e+08  1.4087199     -39132855      -39132855       1035.1961     -39131820      -2012.9641     -2005.9849     -2035.9976      0.55556476    -13.837269      1.5010356      13129.565    
    158000   346.62672      0.079          0.20258145     0.20199317     0.20506724    -2005.5658      753.19718      753.19718      753.19718      4.2729327e+08  1.4067625     -39115888      -39115888       1032.1952     -39114856      -1999.3234     -1993.5176     -2023.8563     -0.13468658    -13.573049      0.43789657     12913.997    
    159000   346.26722      0.0795         0.20132381     0.20104597     0.20383076    -1994.2447      753.5462       753.5462       753.5462       4.2788756e+08  1.4048087     -39099003      -39099003       1031.1247     -39097972      -1986.9115     -1984.1695     -2011.6532     -0.67017745    -13.321293      0.2908594      13137.605    
    160000   345.76545      0.08           0.20036904     0.20029304     0.2026778     -1984.8339      753.89523      753.89523      753.89523      4.284824e+08   1.4028584     -39082186      -39082186       1029.6305     -39081157      -1977.4886     -1976.7386     -2000.2744     -1.885714      -13.962319      1.1831624      12954.603    
    161000   344.92562      0.0805         0.19949637     0.19944403     0.20154089    -1975.4299      754.24426      754.24426      754.24426      4.2907779e+08  1.4009118     -39065433      -39065433       1027.1296     -39064406      -1968.8761     -1968.3596     -1989.0539     -2.8740905     -14.229363      1.1739027      13002.411    
    162000   344.14254      0.081          0.19856864     0.19843227     0.20048571    -1965.5782      754.59328      754.59328      754.59328      4.2967373e+08  1.3989688     -39048746      -39048746       1024.7977     -39047721      -1959.7201     -1958.3743     -1978.6401     -2.536502      -13.353612      0.18295892     13020.466    
    163000   343.42791      0.0815         0.19766736     0.19741588     0.19958434    -1956.3042      754.94231      754.94231      754.94231      4.3027022e+08  1.3970294     -39032124      -39032124       1022.6697     -39031101      -1950.8252     -1948.3433     -1969.7443     -1.3673561     -12.059821     -0.77337368     13082.515    
    164000   342.60983      0.082          0.19686056     0.19649197     0.19870318    -1947.7119      755.29133      755.29133      755.29133      4.3086727e+08  1.3950935     -39015557      -39015557       1020.2336     -39014536      -1942.8627     -1939.225      -1961.048      -0.87630817    -11.350533     -0.54564423     13076.301    
    165000   341.70356      0.0825         0.19597796     0.19556631     0.1976942     -1938.4438      755.64036      755.64036      755.64036      4.3146486e+08  1.3931613     -38999044      -38999044       1017.5348     -38998027      -1934.1521     -1930.0894     -1951.09       -0.9951872     -11.821932      0.79810019     12968.715    
    166000   340.84101      0.083          0.19498723     0.19464649     0.19659511    -1928.5429      755.98938      755.98938      755.98938      4.3206301e+08  1.3912326     -38982598      -38982598       1014.9663     -38981583      -1924.3743     -1921.0115     -1940.2429     -0.96990872    -13.245855      1.8187759      13109.976    
    167000   339.79277      0.0835         0.19390225     0.19373587     0.19557706    -1918.6288      756.33841      756.33841      756.33841      4.3266171e+08  1.3893075     -38966223      -38966223       1011.8448     -38965212      -1913.6664     -1912.0243     -1930.1955     -1.4791763     -13.80191       1.805574       12974.904    
    168000   338.75393      0.084          0.19287478     0.19288347     0.19466227    -1909.4351      756.68743      756.68743      756.68743      4.3326097e+08  1.3873859     -38949910      -38949910       1008.7514     -38948901      -1903.5261     -1903.6118     -1921.1672     -2.4153833     -12.746351      1.3036507      13087.115    
    169000   338.08538      0.0845         0.19207098     0.1920951      0.19379334    -1901.3387      757.03646      757.03646      757.03646      4.3386078e+08  1.3854678     -38933650      -38933650       1006.7605     -38932643      -1895.5932     -1895.8313     -1912.5915     -2.9091458     -11.316636      1.0126759      13068.53     
    170000   337.71723      0.085          0.19150384     0.19135299     0.19295197    -1894.2637      757.38549      757.38549      757.38549      4.3446114e+08  1.3835533     -38917435      -38917435       1005.6643     -38916429      -1889.996      -1888.5072     -1904.2878     -3.0671896     -10.540494      1.094418       12961.773    
    171000   337.28959      0.0855         0.19100757     0.19073818     0.19221354    -1888.1793      757.73451      757.73451      757.73451      4.3506205e+08  1.3816423     -38901260      -38901260       1004.3908     -38900255      -1885.0982     -1882.4395     -1897.0002     -3.1378268     -10.217355      1.3341412      13139.288    
    172000   336.84415      0.086          0.19033261     0.1900767      0.19146883    -1881.3328      758.08354      758.08354      758.08354      4.3566352e+08  1.3797349     -38885126      -38885126       1003.0643     -38884123      -1878.4368     -1875.9112     -1889.6505     -2.4987561     -9.7549333      1.82931        13046.071    
    173000   336.50136      0.0865         0.18947107     0.18934663     0.19071099    -1873.6037      758.43256      758.43256      758.43256      4.3626554e+08  1.3778309     -38869035      -38869035       1002.0436     -38868033      -1869.934      -1868.706      -1882.1711     -1.2598143     -9.5215247      2.1586777      12964.938    
    174000   336.20797      0.087          0.18863449     0.18859908     0.18999284    -1866.0298      758.78159      758.78159      758.78159      4.3686812e+08  1.3759304     -38852994      -38852994       1001.1699     -38851993      -1861.6777     -1861.3282     -1875.0835     -0.69564015    -9.3708835      2.1992853      13079.477    
    175000   335.93791      0.0875         0.1879138      0.18784138     0.18923135    -1858.6612      759.13061      759.13061      759.13061      4.3747125e+08  1.3740335     -38837009      -38837009       1000.3657     -38836008      -1854.565      -1853.8503     -1867.5682     -1.5874079     -10.054747      2.4385521      12954.4      
    176000   335.29517      0.088          0.18724853     0.18708741     0.18843803    -1851.3824      759.47964      759.47964      759.47964      4.3807494e+08  1.37214       -38821073      -38821073       998.45177     -38820075      -1847.9993     -1846.4092     -1859.7388     -2.797037      -11.026601      3.0181962      13134.098    
    177000   334.1559       0.0885         0.18649027     0.18634393     0.18762313    -1843.7613      759.82866      759.82866      759.82866      4.3867918e+08  1.37025       -38805184      -38805184       995.0592      -38804189      -1840.5159     -1839.0716     -1851.6963     -3.5306456     -11.043508      3.3660633      12918.079    
    178000   333.27195      0.089          0.18558815     0.18557751     0.18675549    -1835.4179      760.17769      760.17769      760.17769      4.3928397e+08  1.3683635     -38789339      -38789339       992.42697     -38788347      -1831.6127     -1831.5076     -1843.1333     -3.7577443     -9.8976837      3.4169882      13113.536    
    179000   333.0104       0.0895         0.18480253     0.18488822     0.18595481    -1827.9318      760.52672      760.52672      760.52672      4.3988933e+08  1.3664804     -38773537      -38773537       991.64812     -38772545      -1823.8591     -1824.7048     -1835.2313     -4.1750145     -9.2468206      3.4918742      12960.49     
    180000   332.93479      0.09           0.18434798     0.18432242     0.18528985    -1822.3875      760.87574      760.87574      760.87574      4.4049523e+08  1.3646008     -38757774      -38757774       991.42296     -38756783      -1819.3731     -1819.1209     -1828.6686     -4.0462932     -9.7528962      3.7348757      13164.008    
    181000   332.69888      0.0905         0.18408877     0.18381521     0.18474952    -1818.0886      761.22477      761.22477      761.22477      4.411017e+08   1.3627246     -38742052      -38742052       990.72044     -38741062      -1816.8149     -1814.1151     -1823.336      -2.7651304     -10.336627      3.1292435      13044.169    
    182000   332.29606      0.091          0.18371799     0.18330688     0.18436067    -1813.9174      761.57379      761.57379      761.57379      4.4170872e+08  1.3608519     -38726365      -38726365       989.52091     -38725375      -1813.1556     -1809.0983     -1819.4983     -1.5321058     -10.250272      2.6327677      12986.033    
    183000   332.08584      0.0915         0.18308426     0.18274875     0.18389115    -1808.4519      761.92282      761.92282      761.92282      4.423163e+08   1.3589826     -38710700      -38710700       988.89492     -38709711      -1806.9011     -1803.5899     -1814.8646     -1.4584668     -9.0711099      3.0634838      13071.197    
    184000   332.04812      0.092          0.18227204     0.18213437     0.18324238    -1801.6244      762.27184      762.27184      762.27184      4.4292443e+08  1.3571167     -38695061      -38695061       988.78261     -38694073      -1798.8852     -1797.5264     -1808.4617     -2.2257029     -7.7771498      3.6525516      12910.632    
    185000   331.60629      0.0925         0.18146219     0.18149363     0.18246503    -1794.2951      762.62087      762.62087      762.62087      4.4353312e+08  1.3552542     -38679463      -38679463       987.46691     -38678476      -1790.8926     -1791.2029     -1800.7899     -2.9136578     -7.7005372      3.4732054      13103.655    
    186000   330.81173      0.093          0.1808126      0.18087873     0.18165581    -1787.4731      762.96989      762.96989      762.96989      4.4414237e+08  1.3533952     -38663907      -38663907       985.10083     -38662922      -1784.4816     -1785.1342     -1792.8034     -3.4368312     -8.2117074      3.5518299      12906.326    
    187000   330.24989      0.0935         0.18036941     0.18037619     0.18094087    -1782.0099      763.31892      763.31892      763.31892      4.4475218e+08  1.3515395     -38648392      -38648392       983.42777     -38647408      -1780.1077     -1780.1746     -1785.7475     -3.613243      -8.4861295      4.1676122      13049.025    
    188000   329.98852      0.094          0.17986348     0.17986301     0.18043241    -1776.9846      763.66795      763.66795      763.66795      4.4536254e+08  1.3496873     -38632917      -38632917       982.64945     -38631934      -1775.1145     -1775.1099     -1780.7294     -3.1507514     -8.6230927      4.78201        13117.07     
    189000   329.85263      0.0945         0.17907626     0.17913984     0.18002445    -1770.6737      764.01697      764.01697      764.01697      4.4597346e+08  1.3478384     -38617476      -38617476       982.24479     -38616494      -1767.3453     -1767.9727     -1776.7032     -2.4877265     -9.2763496      4.6080142      13052.057    
    190000   329.87748      0.095          0.17832817     0.17833684     0.17948818    -1763.8069      764.366        764.366        764.366        4.4658494e+08  1.3459929     -38602074      -38602074       982.31882     -38601091      -1759.9622     -1760.0478     -1771.4107     -2.3967142     -9.4800649      4.017599       13031.654    
    191000   329.6636       0.0955         0.17784831     0.17777143     0.17886795    -1758.3278      764.71502      764.71502      764.71502      4.4719698e+08  1.3441507     -38586713      -38586713       981.68189     -38585731      -1755.2264     -1754.4676     -1765.2894     -2.7458815     -8.7165827      3.9036488      12977.948    
    192000   328.97546      0.096          0.17755432     0.17741007     0.1782474     -1754.1304      765.06405      765.06405      765.06405      4.4780958e+08  1.3423119     -38571374      -38571374       979.63275     -38570395      -1752.3249     -1750.9013     -1759.165      -3.0886717     -8.0240994      4.3503766      12982.285    
    193000   328.52785      0.0965         0.17722792     0.17699079     0.17759267    -1749.5234      765.41307      765.41307      765.41307      4.4842274e+08  1.3404765     -38556053      -38556053       978.29985     -38555075      -1749.1036     -1746.7633     -1752.7034     -3.5154173     -7.6857968      4.6779573      13135.084    
    194000   328.75538      0.097          0.17671787     0.17643613     0.17696165    -1743.9449      765.7621       765.7621       765.7621       4.4903646e+08  1.3386444     -38540767      -38540767       978.97738     -38539788      -1744.0697     -1741.2892     -1746.4757     -3.2962044     -7.3773504      4.7381645      12917.951    
    195000   328.9494       0.0975         0.17608442     0.17594751     0.17655608    -1738.9193      766.11112      766.11112      766.11112      4.4965073e+08  1.3368157     -38525519      -38525519       979.55515     -38524540      -1737.8181     -1736.4669     -1742.473      -2.6565071     -7.5241346      5.1917059      12978.29     
    196000   328.70688      0.098          0.17549023     0.17547359     0.17621281    -1734.2762      766.46015      766.46015      766.46015      4.5026557e+08  1.3349902     -38510303      -38510303       978.83297     -38509324      -1731.9539     -1731.7897     -1739.0852     -2.7096545     -7.9166704      5.6126842      12917.218    
    197000   328.3973       0.0985         0.17492643     0.1748604      0.17571266    -1728.7589      766.80918      766.80918      766.80918      4.5088097e+08  1.3331681     -38495111      -38495111       977.91108     -38494133      -1726.3897     -1725.738      -1734.1491     -2.7333826     -7.9413952      5.2666995      13096.547    
    198000   328.22292      0.099          0.17436649     0.1742595      0.17508871    -1722.8874      767.1582       767.1582       767.1582       4.5149693e+08  1.3313494     -38479948      -38479948       977.3918      -38478971      -1720.8635     -1719.8076     -1727.9912     -1.9247723     -6.9707286      5.0018113      13052.235    
    199000   328.03663      0.0995         0.17381705     0.17377702     0.17446421    -1717.4382      767.50723      767.50723      767.50723      4.5211344e+08  1.3295339     -38464823      -38464823       976.83707     -38463846      -1715.441      -1715.0458     -1721.8279     -1.85397       -6.1861392      5.0169955      12974.771    
    200000   327.62837      0.1            0.17323632     0.17333986     0.17394437    -1712.3795      767.85625      767.85625      767.85625      4.5273052e+08  1.3277217     -38449732      -38449732       975.62133     -38448756      -1709.7096     -1710.7314     -1716.6974     -2.6366291     -6.9940051      4.823666       12768.018    
    201000   327.13854      0.1005         0.17267342     0.17285684     0.17341988    -1707.2132      768.20528      768.20528      768.20528      4.5334816e+08  1.3259128     -38434670      -38434670       974.16271     -38433696      -1704.1542     -1705.9644     -1711.5211     -2.8902161     -8.3611588      5.0611854      12955.192    
    202000   327.11356      0.101          0.17221994     0.17227976     0.1728122     -1701.8238      768.5543       768.5543       768.5543       4.5396636e+08  1.3241072     -38419641      -38419641       974.08831     -38418667      -1699.6786     -1700.269      -1705.5238     -2.276473      -8.6733814      5.7919184      13215.704    
    203000   327.20994      0.1015         0.17195823     0.17174265     0.17226478    -1697.395       768.90333      768.90333      768.90333      4.5458513e+08  1.3223049     -38404641      -38404641       974.37532     -38403667      -1697.0958     -1694.9681     -1700.1212     -1.9778369     -7.7347738      6.1816616      12924.202    
    204000   326.92488      0.102          0.17174392     0.17130183     0.17189962    -1694.0386      769.25235      769.25235      769.25235      4.5520445e+08  1.3205058     -38389657      -38389657       973.52648     -38388684      -1694.9807     -1690.6176     -1696.5173     -2.8597511     -6.622482       6.0746784      13026.464    
    205000   326.60324      0.1025         0.17136181     0.17098455     0.17156116    -1690.6243      769.60138      769.60138      769.60138      4.5582434e+08  1.3187101     -38374692      -38374692       972.56867     -38373719      -1691.2096     -1687.4863     -1693.177      -4.322154      -5.9118962      5.8891792      13001.923    
    206000   326.63134      0.103          0.17072216     0.170688       0.17110265    -1686.036       769.95041      769.95041      769.95041      4.5644479e+08  1.3169175     -38359752      -38359752       972.65237     -38358780      -1684.8967     -1684.5596     -1688.6518     -4.3035025     -5.9974522      5.1784975      13023.735    
    207000   326.82772      0.1035         0.17004948     0.17031044     0.17053591    -1680.7166      770.29943      770.29943      770.29943      4.5706581e+08  1.3151282     -38344840      -38344840       973.23714     -38343867      -1678.2579     -1680.8333     -1683.0586     -3.0043983     -6.4759175      5.0191367      13048.067    
    208000   326.79962      0.104          0.16949428     0.16975397     0.17001728    -1675.3533      770.64846      770.64846      770.64846      4.5768738e+08  1.3133422     -38329962      -38329962       973.15348     -38328988      -1672.7785     -1675.3415     -1677.9401     -1.8753876     -6.9115372      5.4834126      13014.935    
    209000   326.58959      0.1045         0.16903552     0.16906997     0.16953637    -1670.0119      770.99748      770.99748      770.99748      4.5830952e+08  1.3115594     -38315116      -38315116       972.52804     -38314143      -1668.2509     -1668.5909     -1673.1939     -1.6787665     -7.0916201      6.0906109      13022.18     
    210000   326.38273      0.105          0.1685924      0.16850767     0.16910815    -1665.2956      771.34651      771.34651      771.34651      4.5893222e+08  1.3097798     -38300302      -38300302       971.91202     -38299330      -1663.8776     -1663.0414     -1668.9677     -1.8654463     -6.6579708      6.2773435      13135.104    
    211000   326.25957      0.1055         0.16811754     0.16809947     0.16872184    -1661.1197      771.69553      771.69553      771.69553      4.5955549e+08  1.3080034     -38285514      -38285514       971.54529     -38284543      -1659.1911     -1659.0128     -1665.1551     -2.0686999     -6.1709395      5.9760196      12617.856    
    212000   325.9991       0.106          0.16766413     0.16769232     0.16828217    -1656.8422      772.04456      772.04456      772.04456      4.6017932e+08  1.3062302     -38270749      -38270749       970.76966     -38269778      -1654.7163     -1654.9945     -1660.8159     -2.3187415     -6.6363426      6.1860614      13053.305    
    213000   325.65982      0.1065         0.1672143      0.16716766     0.16779083    -1652.02        772.39358      772.39358      772.39358      4.6080372e+08  1.3044603     -38256005      -38256005       969.75933     -38255036      -1650.2769     -1649.8165     -1655.9667     -2.6073309     -7.2914838      6.9062003      12975.893    
    214000   325.49267      0.107          0.16674617     0.16664844     0.16726235    -1647.0334      772.74261      772.74261      772.74261      4.6142868e+08  1.3026935     -38241292      -38241292       969.2616      -38240323      -1645.6567     -1644.6923     -1650.7511     -2.9298796     -7.2185589      6.9695402      13065.08     
    215000   325.6426       0.1075         0.16638669     0.16623894     0.16670719    -1642.6773      773.09164      773.09164      773.09164      4.620542e+08   1.3009299     -38226611      -38226611       969.70805     -38225642      -1642.109      -1640.6508     -1645.2721     -2.6418882     -6.6647813      6.4564498      13063.711    
    216000   325.67137      0.108          0.16612837     0.1659006      0.16625106    -1639.2139      773.44066      773.44066      773.44066      4.6268029e+08  1.2991695     -38211957      -38211957       969.79372     -38210987      -1639.5596     -1637.3117     -1640.7703     -2.0836416     -6.3252666      6.0104437      12983.166    
    217000   325.47104      0.1085         0.16580325     0.16561301     0.1659427     -1636.1838      773.78969      773.78969      773.78969      4.6330695e+08  1.2974123     -38197310      -38197310       969.19717     -38196341      -1636.3509     -1634.4733     -1637.7271     -2.5536597     -5.8656173      5.8207998      13075.829    
[...]
   3089000   322.41716      1.5445         0.013926626    0.013828682    0.013750905   -136.54482      1776.1911      1776.1911      1776.1911      5.6036253e+09  0.10726987    -12237437      -12237437       960.10326     -12236477      -137.44511     -136.47848     -135.71088     -0.17893969    -0.046689962    1.4762453      12690.65     
   3090000   322.35908      1.545          0.013915192    0.013822135    0.013742009   -136.45641      1776.5401      1776.5401      1776.5401      5.6069293e+09  0.10720666    -12231002      -12231002       959.9303      -12230042      -137.33227     -136.41387     -135.62309     -0.1574286     -0.055816427    1.4724117      12495.507    
   3091000   322.27082      1.5455         0.013903803    0.013812603    0.013732206   -136.35533      1776.8892      1776.8892      1776.8892      5.6102346e+09  0.10714349    -12224569      -12224569       959.66747     -12223610      -137.21987     -136.31979     -135.52633     -0.14084585    -0.061645298    1.4714425      12693.934    
   3092000   322.18564      1.546          0.013894911    0.013802183    0.013722003   -136.25824      1777.2382      1777.2382      1777.2382      5.6135412e+09  0.10708038    -12218138      -12218138       959.41381     -12217179      -137.13211     -136.21695     -135.42565     -0.12312805    -0.059945244    1.4676144      12548.251    
   3093000   322.14692      1.5465         0.013887592    0.013791788    0.013710985   -136.16371      1777.5872      1777.5872      1777.5872      5.6168492e+09  0.10701732    -12211710      -12211710       959.29852     -12210750      -137.05987     -136.11436     -135.3169      -0.10729473    -0.054930254    1.4499967      12491.927    
   3094000   322.17387      1.547          0.013880157    0.01378038     0.013700166   -136.06614      1777.9363      1777.9363      1777.9363      5.6201584e+09  0.10695431    -12205283      -12205283       959.37878     -12204323      -136.9865      -136.00178     -135.21013     -0.10944025    -0.05156837     1.425831       12552.651    
   3095000   322.24032      1.5475         0.013871803    0.013768581    0.013689021   -135.96317      1778.2853      1778.2853      1778.2853      5.6234689e+09  0.10689134    -12198858      -12198858       959.57665     -12197899      -136.90405     -135.88533     -135.10014     -0.12981849    -0.057364691    1.4089024      12333.577    
   3096000   322.30328      1.548          0.013863946    0.013757435    0.013677118   -135.8615       1778.6343      1778.6343      1778.6343      5.6267807e+09  0.10682843    -12192436      -12192436       959.76413     -12191477      -136.82651     -135.77533     -134.98266     -0.15350106    -0.079784358    1.4034299      12555.161    
   3097000   322.33293      1.5485         0.01385611     0.013747626    0.013665901   -135.76655      1778.9833      1778.9833      1778.9833      5.6300938e+09  0.10676556    -12186017      -12186017       959.85244     -12185057      -136.74918     -135.67852     -134.87196     -0.16620434    -0.1067527      1.4117093      12314.536    
   3098000   322.33087      1.549          0.0138466      0.013738351    0.013657304   -135.67647      1779.3324      1779.3324      1779.3324      5.6334083e+09  0.10670275    -12179599      -12179599       959.84628     -12178639      -136.65532     -135.58699     -134.78711     -0.16450737    -0.1157705      1.4309518      12581.763    
   3099000   322.31574      1.5495         0.013835155    0.01372936     0.013650251   -135.58604      1779.6814      1779.6814      1779.6814      5.636724e+09   0.10663998    -12173183      -12173183       959.80122     -12172223      -136.54237     -135.49825     -134.7175      -0.15178109    -0.091042052    1.4494307      12411.87     
   3100000   322.29178      1.55           0.013823735    0.013721199    0.013643261   -135.49863      1780.0304      1780.0304      1780.0304      5.640041e+09   0.10657727    -12166769      -12166769       959.7299      -12165809      -136.42966     -135.4177      -134.64851     -0.14110567    -0.051505876    1.4558271      12052.37     
   3101000   322.2614       1.5505         0.013812991    0.013713819    0.013634598   -135.4105       1780.3794      1780.3794      1780.3794      5.6433593e+09  0.1065146     -12160356      -12160356       959.63943     -12159396      -136.32362     -135.34487     -134.56302     -0.13769004    -0.02569166     1.4532083      12608.325    
   3102000   322.24269      1.551          0.013801699    0.013705589    0.01362405    -135.31158      1780.7285      1780.7285      1780.7285      5.6466789e+09  0.10645198    -12153945      -12153945       959.58369     -12152985      -136.21218     -135.26365     -134.45892     -0.12938777    -0.024601793    1.4481845      12363.829    
   3103000   322.25093      1.5515         0.013791899    0.013697019    0.013613606   -135.21679      1781.0775      1781.0775      1781.0775      5.6499999e+09  0.10638941    -12147536      -12147536       959.60824     -12146576      -136.11546     -135.17906     -134.35584     -0.1256194     -0.037106637    1.4395989      12410.09     
   3104000   322.28139      1.552          0.01378459     0.013689822    0.013604985   -135.14071      1781.4265      1781.4265      1781.4265      5.6533221e+09  0.10632689    -12141129      -12141129       959.69896     -12140169      -136.04333     -135.10804     -134.27076     -0.13567601    -0.048870041    1.4273677      12530.086    
   3105000   322.31726      1.5525         0.013777379    0.013683045    0.013598946   -135.07483      1781.7755      1781.7755      1781.7755      5.6566456e+09  0.10626442    -12134723      -12134723       959.80577     -12133763      -135.97216     -135.04116     -134.21116     -0.14712239    -0.060133334    1.4158414      12468.923    
   3106000   322.34002      1.553          0.013769162    0.013674992    0.013594049   -135.00519      1782.1246      1782.1246      1782.1246      5.6599705e+09  0.10620199    -12128317      -12128317       959.87353     -12127357      -135.89106     -134.96168     -134.16283     -0.14839313    -0.073390141    1.4045556      12483.726    
   3107000   322.35311      1.5535         0.013759173    0.013665488    0.013587338   -134.91899      1782.4736      1782.4736      1782.4736      5.6632966e+09  0.10613962    -12121913      -12121913       959.91252     -12120953      -135.79248     -134.86788     -134.0966      -0.14181676    -0.088076609    1.391362       12206.227    
   3108000   322.36693      1.554          0.013748385    0.013656454    0.013578189   -134.82368      1782.8226      1782.8226      1782.8226      5.666624e+09   0.10607729    -12115511      -12115511       959.95367     -12114551      -135.68601     -134.77872     -134.00631     -0.13264473    -0.092250689    1.3787542      12422.073    
   3109000   322.36489      1.5545         0.013740662    0.013648663    0.013569112   -134.74278      1783.1716      1783.1716      1783.1716      5.6699528e+09  0.10601502    -12109110      -12109110       959.94759     -12108150      -135.60979     -134.70183     -133.91672     -0.12688878    -0.077385234    1.3776402      12388.503    
   3110000   322.32363      1.555          0.013733243    0.01363897     0.013559744   -134.65567      1783.5207      1783.5207      1783.5207      5.6732828e+09  0.10595279    -12102711      -12102711       959.82474     -12101751      -135.53658     -134.60617     -133.82427     -0.12297846    -0.050964529    1.3935006      12382.684    
   3111000   322.27773      1.5555         0.013721703    0.013625883    0.013548522   -134.53774      1783.8697      1783.8697      1783.8697      5.6766142e+09  0.10589061    -12096313      -12096313       959.68804     -12095354      -135.42268     -134.47701     -133.71351     -0.12420589    -0.041868404    1.4185067      12494.928    
   3112000   322.27139      1.556          0.013707828    0.013612348    0.013537603   -134.41165      1784.2187      1784.2187      1784.2187      5.6799468e+09  0.10582848    -12089920      -12089920       959.66917     -12088961      -135.28575     -134.34343     -133.60576     -0.14377735    -0.055945274    1.4377425      12471.101    
   3113000   322.28641      1.5565         0.013695328    0.013602257    0.013529708   -134.31135      1784.5677      1784.5677      1784.5677      5.6832808e+09  0.1057664     -12083530      -12083530       959.71388     -12082570      -135.16238     -134.24384     -133.52783     -0.17751511    -0.068067539    1.4454313      12365.033    
   3114000   322.2963       1.557          0.013686253    0.013595707    0.013522419   -134.23597      1784.9168      1784.9168      1784.9168      5.686616e+09   0.10570437    -12077141      -12077141       959.74335     -12076182      -135.07282     -134.1792      -133.4559      -0.19503534    -0.062723907    1.4428414      12386.769    
   3115000   322.30197      1.5575         0.013679114    0.013589711    0.013513254   -134.16261      1785.2658      1785.2658      1785.2658      5.6899526e+09  0.10564238    -12070754      -12070754       959.76022     -12069794      -135.00236     -134.12002     -133.36545     -0.18095066    -0.05201162     1.4342015      12368.551    
   3116000   322.32085      1.558          0.013671771    0.013580696    0.013503289   -134.07601      1785.6148      1785.6148      1785.6148      5.6932904e+09  0.10558045    -12064367      -12064367       959.81645     -12063407      -134.92988     -134.03105     -133.2671      -0.15842077    -0.048379901    1.4324712      12333.058    
   3117000   322.35674      1.5585         0.013662819    0.013569195    0.013494665   -133.98036      1785.9638      1785.9638      1785.9638      5.6966296e+09  0.10551856    -12057982      -12057982       959.92332     -12057023      -134.84154     -133.91754     -133.18199     -0.14901722    -0.049577818    1.4411967      12301.565    
   3118000   322.39348      1.559          0.013653158    0.013559206    0.013487524   -133.89222      1786.3129      1786.3129      1786.3129      5.6999701e+09  0.10545672    -12051600      -12051600       960.03272     -12050640      -134.7462      -133.81896     -133.11152     -0.14208188    -0.052956677    1.4467726      12392.33     
   3119000   322.41268      1.5595         0.013644972    0.013551381    0.01348041    -133.81615      1786.6619      1786.6619      1786.6619      5.7033119e+09  0.10539493    -12045220      -12045220       960.0899      -12044259      -134.6654      -133.74173     -133.04131     -0.13746013    -0.063864992    1.4350688      12334.978    
   3120000   322.42073      1.56           0.013638705    0.013543096    0.013471776   -133.73987      1787.0109      1787.0109      1787.0109      5.706655e+09   0.10533319    -12038840      -12038840       960.11387     -12037880      -134.60355     -133.65997     -132.95609     -0.14838819    -0.07359537     1.4111145      12475.962    
   3121000   322.42907      1.5605         0.01363269     0.013533063    0.01346105    -133.65179      1787.3599      1787.3599      1787.3599      5.7099994e+09  0.10527149    -12032461      -12032461       960.13872     -12031501      -134.54419     -133.56094     -132.85024     -0.16548639    -0.068638726    1.3802352      12432.327    
   3122000   322.43887      1.561          0.013624663    0.013521548    0.013449164   -133.5484       1787.709       1787.709       1787.709       5.7133451e+09  0.10520984    -12026085      -12026085       960.1679      -12025125      -134.46497     -133.44731     -132.73293     -0.16305012    -0.061965409    1.3475098      12448.587    
   3123000   322.43508      1.5615         0.013613725    0.013510812    0.013437886   -133.44         1788.058       1788.058       1788.058       5.7166921e+09  0.10514825    -12019712      -12019712       960.1566      -12018752      -134.35702     -133.34135     -132.62163     -0.14270468    -0.059804629    1.3193367      12290.168    
   3124000   322.40547      1.562          0.013599802    0.013501671    0.013426185   -133.32563      1788.407       1788.407       1788.407       5.7200404e+09  0.1050867     -12013341      -12013341       960.06843     -12012381      -134.21961     -133.25114     -132.50614     -0.12613559    -0.057485843    1.3101477      12453.704    
   3125000   322.36789      1.5625         0.013584699    0.013491887    0.013413471   -133.20193      1788.756       1788.756       1788.756       5.72339e+09    0.10502519    -12006974      -12006974       959.95654     -12006014      -134.07055     -133.15457     -132.38066     -0.13030574    -0.051315175    1.3210855      12210.338    
   3126000   322.33679      1.563          0.013574095    0.0134835      0.013402981   -133.10495      1789.1051      1789.1051      1789.1051      5.726741e+09   0.10496374    -12000610      -12000610       959.86393     -11999650      -133.9659      -133.0718      -132.27714     -0.15349908    -0.035709299    1.3455503      12240.437    
   3127000   322.30726      1.5635         0.013568264    0.013476912    0.013396354   -133.04229      1789.4541      1789.4541      1789.4541      5.7300932e+09  0.10490233    -11994247      -11994247       959.77599     -11993287      -133.90835     -133.00678     -132.21173     -0.17250387    -0.024131647    1.3780409      12382.713    
   3128000   322.30483      1.564          0.013561805    0.013469218    0.013390317   -132.97587      1789.8031      1789.8031      1789.8031      5.7334467e+09  0.10484097    -11987884      -11987884       959.76875     -11986924      -133.84461     -132.93085     -132.15216     -0.17120509    -0.017864183    1.4056238      12236.422    
   3129000   322.35233      1.5645         0.013553858    0.013461758    0.013383558   -132.90295      1790.1521      1790.1521      1790.1521      5.7368016e+09  0.10477966    -11981522      -11981522       959.9102      -11980562      -133.76618     -132.85722     -132.08545     -0.14701678    -0.012403338    1.4152679      12237.898    
   3130000   322.41674      1.565          0.013545409    0.013454639    0.013376242   -132.82767      1790.5012      1790.5012      1790.5012      5.7401578e+09  0.1047184     -11975162      -11975162       960.10199     -11974202      -133.68279     -132.78696     -132.01325     -0.11644233    -0.0090554245   1.4153124      12261.816    
   3131000   322.45223      1.5655         0.013536707    0.013445728    0.013367917   -132.74234      1790.8502      1790.8502      1790.8502      5.7435152e+09  0.10465719    -11968803      -11968803       960.20767     -11967842      -133.59691     -132.69902     -131.93108     -0.10341184    -0.00231997     1.4091225      12373.041    
   3132000   322.44189      1.566          0.01352834     0.013433487    0.01335799    -132.64188      1791.1992      1791.1992      1791.1992      5.746874e+09   0.10459602    -11962445      -11962445       960.17687     -11961485      -133.51433     -132.57821     -131.83311     -0.11377542     0.0096881684   1.3990336      12442.699    
   3133000   322.39413      1.5665         0.013519437    0.013420055    0.013346256   -132.52981      1791.5482      1791.5482      1791.5482      5.7502341e+09  0.1045349     -11956091      -11956091       960.03466     -11955131      -133.42647     -132.44564     -131.71731     -0.13203958     0.01526966     1.4017211      12095.119    
   3134000   322.32848      1.567          0.013508977    0.013409473    0.013333588   -132.41891      1791.8973      1791.8973      1791.8973      5.7535955e+09  0.10447383    -11949739      -11949739       959.83919     -11948780      -133.32324     -132.34121     -131.59228     -0.14389062     0.0089081589   1.4101651      12121.149    
   3135000   322.26543      1.5675         0.013497761    0.013402063    0.013321213   -132.31692      1792.2463      1792.2463      1792.2463      5.7569582e+09  0.1044128     -11943390      -11943390       959.65142     -11942431      -133.21254     -132.26807     -131.47015     -0.15877736    -0.0034920447   1.4108289      12233.557    
   3136000   322.22005      1.568          0.013488707    0.013395459    0.013309544   -132.22703      1792.5953      1792.5953      1792.5953      5.7603222e+09  0.10435183    -11937043      -11937043       959.51629     -11936084      -133.12319     -132.2029      -131.35499     -0.18603317    -0.012996863    1.3984526      12074.538    
   3137000   322.20279      1.5685         0.013481192    0.013388131    0.013298841   -132.14299      1792.9443      1792.9443      1792.9443      5.7636876e+09  0.1042909     -11930698      -11930698       959.46488     -11929739      -133.04902     -132.13058     -131.24936     -0.20862804    -0.018895828    1.3765807      12260.977    
   3138000   322.20039      1.569          0.013473407    0.013378331    0.013289307   -132.05377      1793.2934      1793.2934      1793.2934      5.7670542e+09  0.10423001    -11924354      -11924354       959.45774     -11923395      -132.97219     -132.03386     -131.15526     -0.20772504    -0.023417951    1.3618077      12329.232    
   3139000   322.1911       1.5695         0.013463807    0.013366768    0.013280878   -131.95642      1793.6424      1793.6424      1793.6424      5.7704221e+09  0.10416918    -11918013      -11918013       959.43007     -11917053      -132.87744     -131.91974     -131.07208     -0.17915113    -0.027603709    1.3597181      12367.676    
   3140000   322.17746      1.57           0.013451759    0.013357241    0.013273375   -131.86076      1793.9914      1793.9914      1793.9914      5.7737914e+09  0.10410839    -11911673      -11911673       959.38947     -11910714      -132.75854     -131.82572     -130.99803     -0.1372966     -0.029762741    1.3624896      12212.818    
   3141000   322.16768      1.5705         0.013438645    0.013349955    0.013265994   -131.76937      1794.3405      1794.3405      1794.3405      5.777162e+09   0.10404765    -11905336      -11905336       959.36032     -11904377      -132.62911     -131.75381     -130.92518     -0.10203317    -0.028581348    1.3731345      12297.545    
   3142000   322.16677      1.571          0.013426393    0.013343808    0.013259693   -131.68811      1794.6895      1794.6895      1794.6895      5.7805339e+09  0.10398696    -11899000      -11899000       959.35763     -11898041      -132.50819     -131.69315     -130.86299     -0.079889361   -0.028884995    1.3816405      12183.097    
   3143000   322.17778      1.5715         0.013416055    0.013336943    0.013254649   -131.61492      1795.0385      1795.0385      1795.0385      5.7839071e+09  0.10392631    -11892666      -11892666       959.39042     -11891707      -132.40617     -131.62539     -130.81321     -0.067965296   -0.038996572    1.3771211      12339.817    
   3144000   322.21046      1.572          0.013407438    0.013327789    0.013248477   -131.53616      1795.3875      1795.3875      1795.3875      5.7872816e+09  0.10386572    -11886332      -11886332       959.48773     -11885373      -132.32113     -131.53505     -130.7523      -0.064068703   -0.051312337    1.3648734      12227.442    
   3145000   322.25314      1.5725         0.01339954     0.013317187    0.013238807   -131.44349      1795.7366      1795.7366      1795.7366      5.7906574e+09  0.10380516    -11880001      -11880001       959.61482     -11879041      -132.24318     -131.43041     -130.65686     -0.061012248   -0.045478052    1.3692974      12249.449    
   3146000   322.27749      1.573          0.013392211    0.013306979    0.013226688   -131.34593      1796.0856      1796.0856      1796.0856      5.7940345e+09  0.10374466    -11873672      -11873672       9