LAMMPS (23 Jun 2022 - Update 1)
OMP_NUM_THREADS environment is not set. Defaulting to 1 thread. (src/comm.cpp:98)
  using 1 OpenMP thread(s) per MPI task
###

# Read restart info
read_restart ${read_res}
read_restart ./trial7/7030/equpmf71.res
Reading restart file ...
  restart file = 23 Jun 2022, LAMMPS = 23 Jun 2022
  restoring atom style atomic from restart
  orthogonal box = (1701.5326 1701.5326 1701.5326) to (2298.4674 2298.4674 2298.4674)
  1 by 2 by 2 MPI processor grid
  restoring pair style table from restart
  1000 atoms
  read_restart CPU = 0.052 seconds

# Settings
pair_style table/pgn spline 10941
pair_coeff 1 1 N20e.txt DE_GNP 308 72.9   # 1.35 * r
pair_coeff 2 2 N100e.txt DE_GNP 473.9 111.78
WARNING: 20 of 10941 force values in table DE_GNP are inconsistent with -dE/dr.
WARNING:  Should only be flagged at inflection points (src/pair_table_pgn.cpp:478)
pair_coeff 1 2 mixed_potentiale.txt DE_GNP 391.2 92.95
WARNING: 1564 of 10941 force values in table DE_GNP are inconsistent with -dE/dr.
WARNING:  Should only be flagged at inflection points (src/pair_table_pgn.cpp:478)

# Neighbor list
neighbor 2.0 bin
neigh_modify delay 0 every 1 check no once yes

# Temperature
variable T equal ${Temp}
variable T equal 300

# Deformation
reset_timestep 0
variable tmp equal "lx"
variable L0 equal ${tmp}
variable L0 equal 596.934766013208
variable strain equal "(lx - v_L0)/v_L0"
variable stp equal "step"
variable tmpe equal "temp"
variable p1 equal "v_strain"
variable p2 equal "-pxx*1.01325/10000"
variable p3 equal "-pyy*1.01325/10000"
variable p4 equal "-pzz*1.01325/10000"
variable p5 equal "lx"
variable p6 equal "ly"
variable p7 equal "lz"
variable p8 equal "press"
variable p9 equal "epair"
variable p10 equal "etotal"

# Thermo
thermo_style custom step temp v_p1 v_p2 v_p3 v_p4 press lx ly lz vol density epair pe ke etotal pxx pyy pzz pxy pxz pyz spcpu
thermo ${ts_save}
thermo 1000

# Dump
# dump 1 all custom 2000 ./${N20}${N100}/tensile/trajectory/trajectory_${usic}_${trial}_*.tensile.custom id type x y z ix iy iz
# dump_modify 1 sort id
dump 2 all cfg 50000 ./trial${trial}/${N20}${N100}/tensile/trajectory/dumpten.tens_${usic}_${trial}_*.cfg mass type xs ys zs fx fy fz
dump 2 all cfg 50000 ./trial7/${N20}${N100}/tensile/trajectory/dumpten.tens_${usic}_${trial}_*.cfg mass type xs ys zs fx fy fz
dump 2 all cfg 50000 ./trial7/70${N100}/tensile/trajectory/dumpten.tens_${usic}_${trial}_*.cfg mass type xs ys zs fx fy fz
dump 2 all cfg 50000 ./trial7/7030/tensile/trajectory/dumpten.tens_${usic}_${trial}_*.cfg mass type xs ys zs fx fy fz
dump 2 all cfg 50000 ./trial7/7030/tensile/trajectory/dumpten.tens_1_${trial}_*.cfg mass type xs ys zs fx fy fz
dump 2 all cfg 50000 ./trial7/7030/tensile/trajectory/dumpten.tens_1_7_*.cfg mass type xs ys zs fx fy fz
dump_modify 2 element N20 N100

fix 1 all nvt temp ${T} ${T} 100
fix 1 all nvt temp 300 ${T} 100
fix 1 all nvt temp 300 300 100
fix 2 all deform 1 x erate ${strain_rate} y erate ${strain_rate} z erate ${strain_rate} units box
fix 2 all deform 1 x erate 5e-6 y erate ${strain_rate} z erate ${strain_rate} units box
fix 2 all deform 1 x erate 5e-6 y erate 5e-6 z erate ${strain_rate} units box
fix 2 all deform 1 x erate 5e-6 y erate 5e-6 z erate 5e-6 units box
fix             def1 all print ${ts_save} "${p1} ${p2} ${p3} ${p4}" file ./tensile/${trial}/tensile${N20}${N100}_${usic}_${trial}.txt screen no
fix             def1 all print 1000 "${p1} ${p2} ${p3} ${p4}" file ./tensile/${trial}/tensile${N20}${N100}_${usic}_${trial}.txt screen no
fix             def1 all print 1000 "${p1} ${p2} ${p3} ${p4}" file ./tensile/7/tensile${N20}${N100}_${usic}_${trial}.txt screen no
fix             def1 all print 1000 "${p1} ${p2} ${p3} ${p4}" file ./tensile/7/tensile70${N100}_${usic}_${trial}.txt screen no
fix             def1 all print 1000 "${p1} ${p2} ${p3} ${p4}" file ./tensile/7/tensile7030_${usic}_${trial}.txt screen no
fix             def1 all print 1000 "${p1} ${p2} ${p3} ${p4}" file ./tensile/7/tensile7030_1_${trial}.txt screen no
fix             def1 all print 1000 "${p1} ${p2} ${p3} ${p4}" file ./tensile/7/tensile7030_1_7.txt screen no

timestep       		${ts}
timestep       		0.1
run				${steps_tensile}
run				6000000
Generated 0 of 1 mixed pair_coeff terms from geometric mixing rule
Unused restart file global fix info:
  fix style: npt, fix ID: 5
Neighbor list info ...
  update every 1 steps, delay 0 steps, check no
  max neighbors/atom: 2000, page size: 100000
  master list distance cutoff = 113.78
  ghost atom cutoff = 113.78
  binsize = 56.89, bins = 11 11 11
  1 neighbor lists, perpetual/occasional/extra = 1 0 0
  (1) pair table/pgn, perpetual
      attributes: half, newton on
      pair build: half/bin/atomonly/newton
      stencil: half/bin/3d
      bin: standard
Per MPI rank memory allocation (min/avg/max) = 3.854 | 3.855 | 3.856 Mbytes
   Step          Temp           v_p1           v_p2           v_p3           v_p4          Press            Lx             Ly             Lz           Volume        Density         E_pair         PotEng         KinEng         TotEng          Pxx            Pyy            Pzz            Pxy            Pxz            Pyz           S/CPU     
         0   290.12305      3.8090205e-16  0.017347565    0.01383805     0.017712101   -160.86098      596.93477      596.93477      596.93477      2.1270643e+08  2.2007994     -18748172      -18748172       863.9369      -18747308      -171.20715     -136.57094     -174.80484     -40.419456     -18.697123      14.823206      0            
      1000   330.63636      0.0005         0.027900036    0.024770526    0.028438159   -266.82694      597.23323      597.23323      597.23323      2.1302565e+08  2.1975015     -18747280      -18747280       984.57862     -18746296      -275.35194     -244.46609     -280.6628      -38.470948     -19.409857      12.963674      13215.564    
      2000   393.82235      0.001          0.037103291    0.033878273    0.037072871   -355.47145      597.5317       597.5317       597.5317       2.1334519e+08  2.1942102     -18746145      -18746145       1172.7357     -18744972      -366.18101     -334.35256     -365.88079     -35.539835     -18.041088      12.465637      13811.727    
      3000   457.70011      0.0015         0.044606694    0.041261648    0.043973108   -427.14516      597.83017      597.83017      597.83017      2.1366505e+08  2.1909255     -18744798      -18744798       1362.9528     -18743435      -440.23384     -407.2208      -433.98083     -33.525946     -15.42209       12.92082       14180.794    
      4000   498.04897      0.002          0.051433488    0.048305602    0.050771632   -495.14178      598.12864      598.12864      598.12864      2.1398522e+08  2.1876473     -18743217      -18743217       1483.1048     -18741734      -507.60906     -476.73922     -501.07705     -32.931723     -14.085858      12.524337      14070.187    
      5000   511.9367       0.0025         0.058780193    0.056025117    0.058414413   -569.84858      598.4271       598.4271       598.4271       2.1430572e+08  2.1843756     -18741337      -18741337       1524.4601     -18739812      -580.1154      -552.92491     -576.50543     -32.629662     -13.86142       11.593009      14354.684    
      6000   507.38509      0.003          0.066763667    0.064162118    0.066659564   -650.00526      598.72557      598.72557      598.72557      2.1462654e+08  2.1811105     -18739108      -18739108       1510.9062     -18737597      -658.90616     -633.23088     -657.87874     -32.784052     -14.880739      10.919891      14672.944    
      7000   493.97912      0.0035         0.074901328    0.072292131    0.07469063    -729.9419       599.02404      599.02404      599.02404      2.1494767e+08  2.1778518     -18736508      -18736508       1470.9855     -18735037      -739.21863     -713.46786     -737.13921     -33.508248     -16.850653      10.409634      14734.762    
      8000   477.29063      0.004          0.082752762    0.080226328    0.082242122   -806.71506      599.32251      599.32251      599.32251      2.1526913e+08  2.1745997     -18733522      -18733522       1421.29       -18732100      -816.70626     -791.77229     -811.66664     -34.052278     -17.750496      9.9911992      14524.68     
      9000   460.34629      0.0045         0.090177112    0.087820575    0.089502169   -880.00611      599.62097      599.62097      599.62097      2.1559091e+08  2.171354      -18730148      -18730148       1370.8326     -18728777      -889.9789      -866.72169     -883.31773     -33.008147     -18.28336       8.9363046      13987.008    
     10000   444.96432      0.005          0.097412285    0.095229512    0.096827342   -952.27943      599.91944      599.91944      599.91944      2.1591301e+08  2.1681148     -18726397      -18726397       1325.0278     -18725072      -961.38451     -939.84221     -955.61156     -31.487238     -18.626253      6.776435       13949.55     
     11000   432.01544      0.0055         0.10455262     0.10243022     0.10425177    -1023.8823      600.21791      600.21791      600.21791      2.1623543e+08  2.164882      -18722285      -18722285       1286.4682     -18720999      -1031.8541     -1010.9077     -1028.885      -31.058807     -17.750283      5.5355108      13835.182    
     12000   421.74897      0.006          0.11157151     0.10958999     0.11155868    -1094.5643      600.51637      600.51637      600.51637      2.1655816e+08  2.1616557     -18717821      -18717821       1255.8964     -18716565      -1101.1252     -1081.5691     -1100.9986     -30.577187     -16.465782      5.6112926      13619.144    
     13000   413.38777      0.0065         0.11848794     0.11685734     0.1185564     -1164.246       600.81484      600.81484      600.81484      2.1688123e+08  2.1584357     -18713006      -18713006       1230.9982     -18711775      -1169.3851     -1153.2922     -1170.0607     -29.160083     -15.999335      5.4837475      13772.782    
     14000   406.05802      0.007          0.12539118     0.12405053     0.12518204    -1232.4163      601.11331      601.11331      601.11331      2.1720461e+08  2.1552222     -18707840      -18707840       1209.1714     -18706631      -1237.5147     -1224.2835     -1235.4507     -27.546219     -16.883388      4.6439106      13965.845    
     15000   399.47436      0.0075         0.13207156     0.1307817      0.13152965    -1297.4189      601.41178      601.41178      601.41178      2.1752831e+08  2.152015      -18702349      -18702349       1189.5664     -18701159      -1303.445      -1290.7151     -1298.0967     -25.589353     -18.708576      3.7216646      13982.059    
     16000   394.10795      0.008          0.13822889     0.13699135     0.13750768    -1357.7693      601.71024      601.71024      601.71024      2.1785233e+08  2.1488142     -18696558      -18696558       1173.5862     -18695384      -1364.2131     -1351.9995     -1357.0953     -24.344649     -20.648142      3.6556326      13925.68     
     17000   390.10578      0.0085         0.14428505     0.14309952     0.14342646    -1417.2581      602.00871      602.00871      602.00871      2.1817668e+08  2.1456197     -18690466      -18690466       1161.6684     -18689304      -1423.9827     -1412.2825     -1415.5091     -24.736197     -19.954706      4.7558574      14038.764    
     18000   386.85232      0.009          0.15039425     0.14916941     0.14946144    -1477.1777      602.30718      602.30718      602.30718      2.1850135e+08  2.1424316     -18684067      -18684067       1151.9802     -18682915      -1484.2758     -1472.1876     -1475.0697     -25.536228     -16.365054      5.6015431      13897.801    
     19000   384.32917      0.0095         0.15622651     0.15471898     0.15526916    -1533.727       602.60565      602.60565      602.60565      2.1882634e+08  2.1392498     -18677371      -18677371       1144.4666     -18676226      -1541.8358     -1526.9577     -1532.3874     -25.257897     -13.697818      4.7692508      13946.446    
     20000   382.73727      0.01           0.1617806      0.16021949     0.16089499    -1588.6013      602.90411      602.90411      602.90411      2.1915165e+08  2.1360742     -18670400      -18670400       1139.7262     -18669260      -1596.6504     -1581.2434     -1587.9101     -25.029744     -13.195749      3.928232       13964.169    
     21000   381.60592      0.0105         0.16712835     0.16615698     0.16643101    -1643.9389      603.20258      603.20258      603.20258      2.1947728e+08  2.132905      -18663167      -18663167       1136.3573     -18662031      -1649.4285     -1639.8419     -1642.5464     -24.768101     -14.107239      3.603928       13974.784    
     22000   380.75162      0.011          0.17257788     0.17222428     0.17184313    -1699.6309      603.50105      603.50105      603.50105      2.1980324e+08  2.129742      -18655666      -18655666       1133.8133     -18654532      -1703.2112     -1699.7215     -1695.9599     -23.596417     -15.312469      4.0326912      13849.737    
     23000   380.11447      0.0115         0.17824177     0.17799737     0.17709409    -1754.5299      603.79952      603.79952      603.79952      2.2012952e+08  2.1265853     -18647902      -18647902       1131.916      -18646770      -1759.1095     -1756.6975     -1747.7828     -21.650979     -15.680712      4.6540051      13797.481    
     24000   380.12694      0.012          0.18351943     0.1830249      0.1820269     -1804.659       604.09798      604.09798      604.09798      2.2045612e+08  2.1234348     -18639885      -18639885       1131.9531     -18638753      -1811.196      -1806.3154     -1796.4658     -19.481798     -15.347703      5.1337443      13941.768    
     25000   381.20169      0.0125         0.18837597     0.18766711     0.18671154    -1851.3188      604.39645      604.39645      604.39645      2.2078304e+08  2.1202905     -18631632      -18631632       1135.1535     -18630497      -1859.1263     -1852.1304     -1842.6996     -18.349491     -15.636739      3.9600207      14017.745    
     26000   382.6039       0.013          0.19335864     0.19262389     0.19163524    -1900.2147      604.69492      604.69492      604.69492      2.2111029e+08  2.1171524     -18623143      -18623143       1139.3291     -18622003      -1908.3014     -1901.05       -1891.2928     -18.099638     -15.843817      1.097987       13974.892    
     27000   383.84889      0.0135         0.19831859     0.19757517     0.19677704    -1949.7353      604.99339      604.99339      604.99339      2.2143786e+08  2.1140205     -18614406      -18614406       1143.0364     -18613263      -1957.2523     -1949.9153     -1942.0383     -18.464094     -13.511901     -0.23958698     13921.56     
     28000   385.61032      0.014          0.20306415     0.20232358     0.201503      -1996.5153      605.29185      605.29185      605.29185      2.2176576e+08  2.1108948     -18605434      -18605434       1148.2817     -18604286      -2004.0874     -1996.7785     -1988.68       -18.743929     -11.737111      2.4029672      13942.447    
     29000   387.98973      0.0145         0.20771897     0.20700094     0.20586784    -2041.575       605.59032      605.59032      605.59032      2.2209397e+08  2.1077753     -18596250      -18596250       1155.3672     -18595095      -2050.0269     -2042.9405     -2031.7576     -17.123137     -12.260028      6.8503945      13905.143    
     30000   390.27103      0.015          0.21215978     0.21152377     0.21007662    -2084.9088      605.88879      605.88879      605.88879      2.2242251e+08  2.1046619     -18586864      -18586864       1162.1605     -18585702      -2093.8542     -2087.5773     -2073.2951     -15.159227     -13.299246      8.8986074      13936.16     
     31000   391.77937      0.0155         0.21615107     0.21581862     0.21425393    -2125.9104      606.18725      606.18725      606.18725      2.2275138e+08  2.1015546     -18577272      -18577272       1166.6521     -18576105      -2133.2452     -2129.9641     -2114.5218     -14.594315     -13.186663      6.8675345      14071.96     
     32000   392.75076      0.016          0.21979318     0.2197826      0.21841057    -2164.6068      606.48572      606.48572      606.48572      2.2308057e+08  2.0984534     -18567473      -18567473       1169.5447     -18566303      -2169.19       -2169.0857     -2155.5447     -15.150393     -12.926526      2.4180922      13860.161    
     33000   393.96395      0.0165         0.22367046     0.22379381     0.22239605    -2203.6691      606.78419      606.78419      606.78419      2.2341008e+08  2.0953584     -18557476      -18557476       1173.1574     -18556303      -2207.4558     -2208.6732     -2194.8784     -15.244571     -11.998932     -0.4182276      13879.82     
     34000   395.8543       0.017          0.22803443     0.22795959     0.22610026    -2243.9157      607.08266      607.08266      607.08266      2.2373992e+08  2.0922694     -18547287      -18547287       1178.7865     -18546108      -2250.5248     -2249.7862     -2231.4361     -15.120444     -11.028416      0.96433084     13951.777    
     35000   398.17877      0.0175         0.23250541     0.23217091     0.22979212    -2284.6235      607.38112      607.38112      607.38112      2.2407008e+08  2.0891865     -18536908      -18536908       1185.7084     -18535723      -2294.65       -2291.3488     -2267.8719     -15.404186     -11.881262      4.5418867      14112.674    
     36000   400.62832      0.018          0.23628618     0.2360087      0.23336612    -2321.4442      607.67959      607.67959      607.67959      2.2440057e+08  2.0861096     -18526344      -18526344       1193.0027     -18525151      -2331.9633     -2329.2247     -2303.1446     -13.483158     -12.269872      6.9131942      13969.511    
     37000   403.4377       0.0185         0.23928313     0.23939958     0.2367958     -2353.7413      607.97806      607.97806      607.97806      2.2473138e+08  2.0830388     -18515617      -18515617       1201.3686     -18514415      -2361.5409     -2362.6902     -2336.9928     -10.027451     -10.453254      6.4353767      13964.093    
     38000   406.20436      0.019          0.24219981     0.24242156     0.24010862    -2384.1763      608.27653      608.27653      608.27653      2.2506252e+08  2.079974      -18504745      -18504745       1209.6072     -18503535      -2390.3263     -2392.5148     -2369.6879     -10.167431     -8.573852       4.7292246      14051.492    
     39000   408.28649      0.0195         0.24538764     0.2452942      0.24332545    -2414.6963      608.57499      608.57499      608.57499      2.2539398e+08  2.0769152     -18493711      -18493711       1215.8074     -18492495      -2421.7877     -2420.8656     -2401.4355     -12.654291     -8.2830102      3.616745       13946.511    
     40000   409.86409      0.02           0.24859322     0.24845998     0.24660975    -2446.4609      608.87346      608.87346      608.87346      2.2572577e+08  2.0738624     -18482512      -18482512       1220.5053     -18481292      -2453.4243     -2452.1094     -2433.849      -13.40547      -10.401994      3.1068972      13770.739    
     41000   411.14368      0.0205         0.25187258     0.25199        0.25002196    -2480.0873      609.17193      609.17193      609.17193      2.2605788e+08  2.0708156     -18471152      -18471152       1224.3157     -18469928      -2485.789      -2486.948      -2467.5249     -10.579307     -13.516585      3.0453679      13839.799    
     42000   412.46889      0.021          0.25528806     0.25550676     0.25318936    -2513.3125      609.4704       609.4704       609.4704       2.2639032e+08  2.0677748     -18459633      -18459633       1228.2619     -18458405      -2519.4973     -2521.6557     -2498.7847     -7.144928      -13.589485      2.3981567      13910.203    
     43000   414.32643      0.0215         0.25835367     0.25869018     0.25576252    -2542.3353      609.76886      609.76886      609.76886      2.2672308e+08  2.0647399     -18447962      -18447962       1233.7933     -18446728      -2549.7525     -2553.0736     -2524.1799     -6.6309228     -10.827938      2.2719203      13927.945    
     44000   416.8609       0.022          0.26086384     0.26131271     0.25801683    -2566.6366      610.06733      610.06733      610.06733      2.2705617e+08  2.0617109     -18436154      -18436154       1241.3406     -18434913      -2574.5259     -2578.9559     -2546.4282     -8.1922877     -7.8227406      3.4814287      13895.733    
     45000   419.35684      0.0225         0.2634147      0.2638024      0.26047373    -2591.3013      610.3658       610.3658       610.3658       2.2738959e+08  2.0586879     -18424228      -18424228       1248.773      -18422980      -2599.7009     -2603.5273     -2570.6758     -9.0047179     -5.9805904      3.335233       14057.998    
     46000   420.86428      0.023          0.26618128     0.26651969     0.26325776    -2618.5006      610.66427      610.66427      610.66427      2.2772333e+08  2.0556708     -18412173      -18412173       1253.2619     -18410920      -2627.005      -2630.3448     -2598.1521     -8.4853587     -5.3271047      2.6555074      13889.663    
     47000   421.83562      0.0235         0.26871938     0.26912553     0.26603364    -2644.5548      610.96273      610.96273      610.96273      2.280574e+08   2.0526595     -18399978      -18399978       1256.1544     -18398722      -2652.0541     -2656.0625     -2625.5479     -7.7344984     -5.9938872      2.1808007      13998.349    
     48000   423.27347      0.024          0.27094272     0.27166842     0.26866493    -2668.8908      611.2612       611.2612       611.2612       2.2839179e+08  2.0496542     -18387655      -18387655       1260.4361     -18386394      -2673.9968     -2681.1589     -2651.5167     -6.4056212     -6.4981966      1.4079974      13829.644    
     49000   424.95107      0.0245         0.27313827     0.27437111     0.27108483    -2692.9656      611.55967      611.55967      611.55967      2.2872651e+08  2.0466547     -18375212      -18375212       1265.4317     -18373947      -2695.6651     -2707.8324     -2675.3993     -4.2494511     -7.1849008      1.8099672      14003.275    
     50000   426.54221      0.025          0.27526739     0.27668129     0.27321414    -2714.5746      611.85814      611.85814      611.85814      2.2906156e+08  2.043661      -18362653      -18362653       1270.1699     -18361383      -2716.6779     -2730.632      -2696.4139     -4.2790719     -8.0622383      3.9972554      13346.938    
     51000   428.57676      0.0255         0.27715662     0.2783055      0.27522967    -2732.7635      612.1566       612.1566       612.1566       2.2939694e+08  2.0406732     -18349993      -18349993       1276.2284     -18348717      -2735.3232     -2746.6617     -2716.3056     -5.3208568     -6.8283852      4.5278404      13961.794    
     52000   430.66339      0.026          0.27919987     0.27985486     0.27716361    -2750.9445      612.45507      612.45507      612.45507      2.2973264e+08  2.0376912     -18337248      -18337248       1282.442      -18335965      -2755.4885     -2761.9527     -2735.3922     -5.0655148     -4.2865514      2.4564635      14035.191    
     53000   432.04235      0.0265         0.28160047     0.28184315     0.27892313    -2771.1712      612.75354      612.75354      612.75354      2.3006867e+08  2.0347151     -18324399      -18324399       1286.5483     -18323112      -2779.1806     -2781.5756     -2752.7573     -4.0239492     -3.1263264      0.37638176     13452.355    
     54000   432.70526      0.027          0.28378703     0.2841126      0.28067675    -2791.5993      613.052        613.052        613.052        2.3040503e+08  2.0317447     -18311436      -18311436       1288.5224     -18310148      -2800.7602     -2803.9734     -2770.0642     -3.1178833     -3.6844292      1.3977418      13927.918    
     55000   433.46808      0.0275         0.28521078     0.28611845     0.28230902    -2808.2515      613.35047      613.35047      613.35047      2.3074171e+08  2.0287801     -18298377      -18298377       1290.7939     -18297086      -2814.8115     -2823.7696     -2786.1734     -1.4666105     -4.7247238      2.9640665      13927.467    
     56000   434.33575      0.028          0.28625955     0.28773567     0.28393144    -2822.3593      613.64894      613.64894      613.64894      2.3107873e+08  2.0258212     -18285229      -18285229       1293.3777     -18283936      -2825.1621     -2839.7303     -2802.1854      0.81035254    -4.6570927      3.7745105      14003.007    
     57000   435.02783      0.0285         0.28757145     0.28895217     0.28555275    -2836.0107      613.94741      613.94741      613.94741      2.3141607e+08  2.0228681     -18272001      -18272001       1295.4386     -18270706      -2838.1095     -2851.7362     -2818.1865      1.8465581     -4.2871874      4.6597874      13913.277    
     58000   435.88213      0.029          0.28918588     0.29010216     0.2870286     -2849.9602      614.24587      614.24587      614.24587      2.3175374e+08  2.0199208     -18258701      -18258701       1297.9826     -18257403      -2854.0428     -2863.0857     -2832.752       1.1427321     -5.4786279      3.865581       13914.205    
     59000   437.17109      0.0295         0.29091075     0.2915134      0.28862267    -2865.5212      614.54434      614.54434      614.54434      2.3209173e+08  2.0169791     -18245329      -18245329       1301.8209     -18244027      -2871.0659     -2877.0135     -2848.4843      0.013910389   -6.1552138      1.3075314      13972.612    
     60000   438.30504      0.03           0.29250145     0.2930352      0.29028415    -2881.2264      614.84281      614.84281      614.84281      2.3243006e+08  2.0140432     -18231880      -18231880       1305.1976     -18230575      -2886.7649     -2892.0326     -2864.8818     -1.1656984     -4.8086804      0.20046638     13944.041    
     61000   439.15991      0.0305         0.29373413     0.29433189     0.29132132    -2892.9594      615.14128      615.14128      615.14128      2.3276871e+08  2.011113      -18218350      -18218350       1307.7432     -18217042      -2898.9305     -2904.8299     -2875.1179     -0.40978538    -3.4015788     -0.15614581     13765.491    
     62000   440.05941      0.031          0.29450016     0.29567716     0.29191584    -2901.8609      615.43974      615.43974      615.43974      2.331077e+08   2.0081885     -18204752      -18204752       1310.4218     -18203442      -2906.4906     -2918.1067     -2880.9854      2.2619575     -3.4450242     -0.62706197     13837.718    
     63000   440.7507       0.0315         0.29511066     0.2969737      0.2927872     -2911.0011      615.73821      615.73821      615.73821      2.3344701e+08  2.0052696     -18191096      -18191096       1312.4803     -18189783      -2912.5158     -2930.9025     -2889.585       4.0260747     -3.6971525      0.075895327    14054.273    
     64000   441.31348      0.032          0.29594498     0.29774566     0.29384546    -2919.7668      616.03668      616.03668      616.03668      2.3378665e+08  2.0023564     -18177385      -18177385       1314.1562     -18176071      -2920.7499     -2938.5212     -2900.0292      4.4404221     -2.9532339      1.9024968      13914.704    
     65000   441.92277      0.0325         0.29694359     0.29835857     0.29491597    -2928.59        616.33515      616.33515      616.33515      2.3412662e+08  1.9994488     -18163629      -18163629       1315.9705     -18162313      -2930.6054     -2944.5701     -2910.5944      4.035435      -1.0305844      3.6013354      13940.312    
     66000   442.25949      0.033          0.29772775     0.29912301     0.29595491    -2937.1023      616.63361      616.63361      616.63361      2.3446692e+08  1.9965468     -18149824      -18149824       1316.9732     -18148507      -2938.3444     -2952.1145     -2920.8478      3.3947971      0.075113506    4.0956226      14006.046    
     67000   442.59274      0.0335         0.29832637     0.2998922      0.29691604    -2944.7639      616.93208      616.93208      616.93208      2.3480755e+08  1.9936505     -18135967      -18135967       1317.9656     -18134649      -2944.2523     -2959.7059     -2930.3335      4.3755722     -0.26523444     3.119157       13957.934    
     68000   443.09586      0.034          0.29894942     0.30063532     0.29757409    -2951.4231      617.23055      617.23055      617.23055      2.3514851e+08  1.9907597     -18122064      -18122064       1319.4638     -18120745      -2950.4014     -2967.0399     -2936.8279      6.0860952     -0.49982262     2.0715686      13901.395    
     69000   443.57742      0.0345         0.29953947     0.30124167     0.29777516    -2956.0204      617.52902      617.52902      617.52902      2.354898e+08   1.9878746     -18108119      -18108119       1320.8978     -18106799      -2956.2247     -2973.0241     -2938.8123      7.2088436     -1.0425676      2.1038565      13922.797    
     70000   443.83153      0.035          0.30009538     0.30171182     0.2979553     -2959.9885      617.82748      617.82748      617.82748      2.3583142e+08  1.984995      -18094140      -18094140       1321.6545     -18092819      -2961.7112     -2977.6641     -2940.5902      7.613833      -2.0857829      1.2498371      14057.392    
     71000   443.99171      0.0355         0.30056048     0.30204991     0.29826118    -2963.6371      618.12595      618.12595      618.12595      2.3617337e+08  1.982121      -18080138      -18080138       1322.1315     -18078816      -2966.3013     -2981.0009     -2943.609       7.7175942     -2.079776      -0.63751743     13917.864    
     72000   444.37401      0.036          0.30069799     0.30223387     0.29867987    -2966.072       618.42442      618.42442      618.42442      2.3651565e+08  1.9792525     -18066113      -18066113       1323.2699     -18064790      -2967.6584     -2982.8164     -2947.7412      7.1130634     -1.2151282     -2.3815439      14034.729    
     73000   444.50712      0.0365         0.30073494     0.30237813     0.2990916     -2968.0226      618.72288      618.72288      618.72288      2.3685826e+08  1.9763895     -18052059      -18052059       1323.6663     -18050736      -2968.0231     -2984.2401     -2951.8046      5.6585872     -0.1373832     -2.7482567      13959.893    
     74000   444.40391      0.037          0.30087045     0.3025026      0.29938404    -2969.8399      619.02135      619.02135      619.02135      2.372012e+08   1.9735321     -18037984      -18037984       1323.359      -18036660      -2969.3605     -2985.4686     -2954.6907      5.128898      -0.067131509   -1.0640197      13875.898    
     75000   444.65853      0.0375         0.30105304     0.30258452     0.29955785    -2971.2819      619.31982      619.31982      619.31982      2.3754448e+08  1.9706802     -18023889      -18023889       1324.1172     -18022565      -2971.1625     -2986.2771     -2956.4061      5.2540977     -0.01712925     0.36243364     13714.795    
     76000   445.19349      0.038          0.30132055     0.30275201     0.29976066    -2973.3801      619.61829      619.61829      619.61829      2.3788808e+08  1.9678337     -18009775      -18009775       1325.7102     -18008449      -2973.8027     -2987.93       -2958.4077      4.6764949     -0.13071817     1.079552       13887.896    
     77000   445.05921      0.0385         0.30157329     0.30301459     0.29993121    -2975.6365      619.91675      619.91675      619.91675      2.3823201e+08  1.9649928     -17995645      -17995645       1325.3103     -17994320      -2976.297      -2990.5215     -2960.0909      4.0273345     -1.5546879      0.55242791     13877.497    
     78000   444.15179      0.039          0.30148306     0.30299206     0.29979768    -2974.8262      620.21522      620.21522      620.21522      2.3857628e+08  1.9621573     -17981493      -17981493       1322.6082     -17980170      -2975.4064     -2990.2991     -2958.7731      5.8054678     -2.3432296     -0.41922494     14012.86     
     79000   443.4935       0.0395         0.30083436     0.30251327     0.29931998    -2969.5455      620.51369      620.51369      620.51369      2.3892088e+08  1.9593273     -17967335      -17967335       1320.6479     -17966014      -2969.0043     -2985.5739     -2954.0585      8.6743101     -0.1608102     -0.31992978     13793.738    
     80000   443.69892      0.04           0.30015156     0.30197432     0.29880794    -2963.8418      620.81216      620.81216      620.81216      2.3926581e+08  1.9565027     -17953188      -17953188       1321.2596     -17951867      -2962.2656     -2980.2548     -2949.0051      9.4847143      2.4721454     -0.26623705     13797.282    
     81000   443.84091      0.0405         0.29984443     0.30166146     0.29835441    -2960.3102      621.11062      621.11062      621.11062      2.3961107e+08  1.9536835     -17939064      -17939064       1321.6824     -17937742      -2959.2344     -2977.1671     -2944.5291      9.6912313      2.7681792     -1.8104887      13911.434    
     82000   443.5553       0.041          0.29982705     0.30137519     0.29796063    -2958.0159      621.40909      621.40909      621.40909      2.3995666e+08  1.9508697     -17924943      -17924943       1320.8319     -17923622      -2959.0629     -2974.3419     -2940.6428      9.8767568      1.938193      -2.7677119      13831.013    
     83000   442.95439      0.0415         0.29953239     0.30076023     0.29784703    -2954.6497      621.70756      621.70756      621.70756      2.4030259e+08  1.9480614     -17910823      -17910823       1319.0425     -17909504      -2956.1548     -2968.2727     -2939.5216      8.8044467      1.8298536     -2.3763715      13812.729    
     84000   442.46216      0.042          0.29870653     0.30001668     0.29763212    -2948.7798      622.00603      622.00603      622.00603      2.4064884e+08  1.9452584     -17896711      -17896711       1317.5768     -17895394      -2948.0042     -2960.9344     -2937.4007      7.0103504      1.2375018     -1.6447021      13961.441    
     85000   442.20925      0.0425         0.29789949     0.29943068     0.29702383    -2942.1959      622.30449      622.30449      622.30449      2.4099543e+08  1.9424608     -17882618      -17882618       1316.8236     -17881301      -2940.0394     -2955.151      -2931.3973      6.0179806     -0.020666632   -0.68306235     13799.668    
     86000   441.89046      0.043          0.29736128     0.29894473     0.2963744     -2936.6902      622.60296      622.60296      622.60296      2.4134235e+08  1.9396686     -17868531      -17868531       1315.8743     -17867215      -2934.7277     -2950.3551     -2924.9879      7.6014734     -0.049719294   -0.41511281     13865.419    
     87000   441.3551       0.0435         0.29682194     0.29842663     0.29566929    -2930.8919      622.90143      622.90143      622.90143      2.4168961e+08  1.9368817     -17854456      -17854456       1314.2801     -17853142      -2929.4048     -2945.2419     -2918.029       9.9101843      0.75310745    -1.3624488      14022.346    
     88000   441.03608      0.044          0.29607682     0.29763367     0.29454905    -2922.1467      623.1999       623.1999       623.1999       2.420372e+08   1.9341002     -17840413      -17840413       1313.3301     -17839100      -2922.051      -2937.416      -2906.9731      9.7523063      0.62377291    -3.3887027      13998.949    
     89000   440.65525      0.0445         0.29521681     0.29671519     0.29351467    -2912.8931      623.49836      623.49836      623.49836      2.4238512e+08  1.931324      -17826406      -17826406       1312.1961     -17825094      -2913.5634     -2928.3512     -2896.7646      8.8972661     -0.27024909    -4.817455       13919.899    
     90000   439.63336      0.045          0.29424717     0.29559436     0.29291313    -2904.037       623.79683      623.79683      623.79683      2.4273337e+08  1.9285531     -17812426      -17812426       1309.1531     -17811117      -2903.9938     -2917.2895     -2890.8278      8.3330317      0.055354903   -4.4420601      13813.094    
     91000   438.26224      0.0455         0.29292322     0.2942731      0.29221105    -2893.0253      624.0953       624.0953       624.0953       2.4308196e+08  1.9257874     -17798480      -17798480       1305.0701     -17797175      -2890.9274     -2904.2497     -2883.8988      7.1741605      0.90561238    -2.8664957      13831.387    
     92000   437.40986      0.046          0.2914329      0.29272354     0.29126056    -2879.898       624.39377      624.39377      624.39377      2.4343088e+08  1.9230271     -17784579      -17784579       1302.5319     -17783277      -2876.2191     -2888.9567     -2874.5182      5.6855945      2.0799037     -0.99919824     13861.575    
     93000   437.02214      0.0465         0.29022494     0.29139519     0.29033551    -2868.511       624.69223      624.69223      624.69223      2.4378014e+08  1.9202721     -17770726      -17770726       1301.3773     -17769425      -2864.2975     -2875.8469     -2865.3887      5.6740742      2.5851118     -1.1532752      13957.439    
     94000   436.1856       0.047          0.28949203     0.29083168     0.28940545    -2861.1865      624.9907       624.9907       624.9907       2.4412973e+08  1.9175223     -17756898      -17756898       1298.8862     -17755599      -2857.0642     -2870.2856     -2856.2098      8.1765136      1.8096547     -2.781681       14031.36     
     95000   434.78679      0.0475         0.28883887     0.29042682     0.28803402    -2853.1942      625.28917      625.28917      625.28917      2.4447965e+08  1.9147777     -17743091      -17743091       1294.7208     -17741796      -2850.618      -2866.2898     -2842.6748      12.180222     -0.04437322    -3.0639598      14078.753    
     96000   433.86924      0.048          0.28778726     0.28924023     0.28637674    -2840.3791      625.58763      625.58763      625.58763      2.4482991e+08  1.9120384     -17729332      -17729332       1291.9885     -17728040      -2840.2394     -2854.5791     -2826.3187      13.815781     -2.3912137     -2.3714261      13895.278    
     97000   433.51793      0.0485         0.28625662     0.28742878     0.28503283    -2824.9633      625.8861       625.8861       625.8861       2.451805e+08   1.9093043     -17715639      -17715639       1290.9424     -17714348      -2825.1332     -2836.7015     -2813.0553      10.893428     -2.8765245     -2.7538875      13895.373    
     98000   432.75939      0.049          0.28467604     0.28580856     0.28411252    -2811.4059      626.18457      626.18457      626.18457      2.4553143e+08  1.9065755     -17701992      -17701992       1288.6836     -17700704      -2809.534      -2820.7112     -2803.9726      5.8630688     -1.4159967     -3.5578156      14063.734    
     99000   431.111        0.0495         0.28326625     0.28451677     0.2832186     -2799.5777      626.48304      626.48304      626.48304      2.4588269e+08  1.9038518     -17688381      -17688381       1283.7749     -17687097      -2795.6205     -2807.9622     -2795.1503      1.750594      -0.27664651    -3.4625922      14030.665    
    100000   429.61276      0.05           0.2818316      0.28310668     0.28199521    -2786.1946      626.7815       626.7815       626.7815       2.4623428e+08  1.9011333     -17674822      -17674822       1279.3134     -17673543      -2781.4616     -2794.0457     -2783.0763      0.85300167     0.019588308   -3.1454618      13446.938    
    101000   429.01016      0.0505         0.28055357     0.28150235     0.28057492    -2772.0399      627.07997      627.07997      627.07997      2.4658621e+08  1.89842       -17661328      -17661328       1277.519      -17660051      -2768.8484     -2778.2122     -2769.0591      3.6545718      0.068754678   -4.5647145      13922.108    
    102000   428.3485       0.051          0.27963208     0.28005117     0.27910676    -2759.4046      627.37844      627.37844      627.37844      2.4693848e+08  1.8957118     -17647889      -17647889       1275.5487     -17646613      -2759.7541     -2763.8902     -2754.5696      8.2555193     -0.60326756    -7.3581657      14114.61     
    103000   426.94651      0.0515         0.27855792     0.2787705      0.27759629    -2746.6887      627.67691      627.67691      627.67691      2.4729108e+08  1.8930088     -17634487      -17634487       1271.3738     -17633216      -2749.1529     -2751.2509     -2739.6624      12.573755     -0.40373183    -8.7520892      13972.685    
    104000   425.35987      0.052          0.27675767     0.27741513     0.27607103    -2731.2898      627.97537      627.97537      627.97537      2.4764402e+08  1.8903109     -17621140      -17621140       1266.6491     -17619873      -2731.3858     -2737.8745     -2724.6092      13.532588      2.0678766     -7.7242995      13823.528    
    105000   424.1376       0.0525         0.27436724     0.27577977     0.27435027    -2712.3852      628.27384      628.27384      628.27384      2.4799729e+08  1.8876182     -17607872      -17607872       1263.0093     -17606609      -2707.7942     -2721.7347     -2707.6266      10.54261       4.2168106     -5.2723163      13973.149    
    106000   423.01898      0.053          0.27211375     0.27397167     0.27232946    -2692.3756      628.57231      628.57231      628.57231      2.483509e+08   1.8849305     -17594692      -17594692       1259.6783     -17593432      -2685.5539     -2703.8902     -2687.6828      7.7429679      3.2268207     -3.7849238      13973.453    
    107000   421.41549      0.0535         0.27049496     0.27195785     0.2704716     -2674.3134      628.87078      628.87078      628.87078      2.4870484e+08  1.882248      -17581588      -17581588       1254.9034     -17580333      -2669.5777     -2684.0153     -2669.3472      6.6924469      0.45343468    -5.8119197      13805.208    
    108000   419.43903      0.054          0.26923025     0.26987203     0.26908768    -2658.7383      629.16924      629.16924      629.16924      2.4905912e+08  1.8795705     -17568541      -17568541       1249.0178     -17567292      -2657.096      -2663.4299     -2655.6889      6.5287017     -1.4595139     -8.4405491      13930.453    
    109000   417.88386      0.0545         0.2679836      0.26805765     0.26793803    -2644.8862      629.46771      629.46771      629.46771      2.4941374e+08  1.8768982     -17555557      -17555557       1244.3868     -17554313      -2644.7925     -2645.5233     -2644.3428      6.0607532     -1.440828      -9.5876431      14015.784    
    110000   416.97044      0.055          0.26669618     0.26680114     0.26663614    -2632.2344      629.76618      629.76618      629.76618      2.4976869e+08  1.8742309     -17542632      -17542632       1241.6668     -17541390      -2632.0866     -2633.1225     -2631.4941      4.7946005     -0.58033065    -7.8702861      13855.635    
    111000   416.44225      0.0555         0.26515965     0.26564622     0.26509562    -2618.3123      630.06465      630.06465      630.06465      2.5012398e+08  1.8715686     -17529759      -17529759       1240.0939     -17528519      -2616.9223     -2621.7244     -2616.2903      4.7281456      0.77829384    -4.8786758      13890.63     
    112000   416.36611      0.056          0.26325096     0.26406171     0.26319328    -2600.5624      630.36311      630.36311      630.36311      2.5047961e+08  1.8689114     -17516956      -17516956       1239.8672     -17515717      -2598.085      -2606.0864     -2597.5157      6.2442988      1.4229246     -3.0657244      13970.08     
    113000   415.75341      0.0565         0.26151634     0.26217726     0.26114305    -2581.9119      630.66158      630.66158      630.66158      2.5083557e+08  1.8662592     -17504237      -17504237       1238.0426     -17502999      -2580.9656     -2587.4884     -2577.2815      7.8210683      1.7060438     -4.0824625      13973.826    
    114000   413.63703      0.057          0.25989142     0.26025068     0.25905209    -2563.3496      630.96005      630.96005      630.96005      2.5119187e+08  1.863612      -17491588      -17491588       1231.7404     -17490357      -2564.9289     -2568.4745     -2556.6454      7.9432925      1.4231372     -6.813376       13945.296    
    115000   410.87008      0.0575         0.25793006     0.25837822     0.25696282    -2543.8641      631.25852      631.25852      631.25852      2.5154851e+08  1.8609698     -17479010      -17479010       1223.501      -17477786      -2545.5718     -2549.9948     -2536.0259      5.9150007      1.1583603     -8.7009865      13808.595    
    116000   408.67338      0.058          0.25584108     0.25651713     0.25527924    -2525.3308      631.55698      631.55698      631.55698      2.5190548e+08  1.8583327     -17466509      -17466509       1216.9595     -17465292      -2524.9551     -2531.6272     -2519.4102      3.080389       2.4389199     -8.9571206      14074.595    
    117000   407.03565      0.0585         0.25394312     0.25466612     0.25412215    -2509.1912      631.85545      631.85545      631.85545      2.522628e+08   1.8557005     -17454082      -17454082       1212.0827     -17452870      -2506.2238     -2513.3592     -2507.9906      2.5019154      3.9975117     -8.1441486      13948.568    
    118000   405.94566      0.059          0.25225178     0.25281654     0.25268806    -2492.8247      632.15392      632.15392      632.15392      2.5262045e+08  1.8530732     -17441734      -17441734       1208.8369     -17440525      -2489.5315     -2495.1052     -2493.8373      3.6216037      3.6924535     -7.0815914      13955.075    
    119000   405.30546      0.0595         0.25063553     0.25114967     0.25068847    -2475.4459      632.45238      632.45238      632.45238      2.5297844e+08  1.850451      -17429470      -17429470       1206.9304     -17428263      -2473.5804     -2478.6545     -2474.1028      3.5290371      1.5390668     -7.4112747      14057.457    
    120000   404.3909       0.06           0.2490025      0.24947961     0.24852385    -2457.4585      632.75085      632.75085      632.75085      2.5333676e+08  1.8478336     -17417281      -17417281       1204.2071     -17416077      -2457.4636     -2462.1723     -2452.7397      2.936066       0.14605653    -6.7910838      13998.444    
    121000   403.11654      0.0605         0.24752251     0.24760016     0.24658405    -2440.0254      633.04932      633.04932      633.04932      2.5369543e+08  1.8452212     -17405153      -17405153       1200.4122     -17403953      -2442.8573     -2443.6236     -2433.5954      2.6469533      0.53706688    -4.4873438      13949.741    
    122000   401.80635      0.061          0.24601671     0.24562439     0.24477993    -2422.6369      633.34779      633.34779      633.34779      2.5405443e+08  1.8426138     -17393098      -17393098       1196.5107     -17391901      -2427.9962     -2424.1243     -2415.7901      2.7202519      0.61717529    -4.8708571      13943.103    
    123000   400.29892      0.0615         0.24419159     0.24383247     0.24302597    -2404.9676      633.64625      633.64625      633.64625      2.5441377e+08  1.8400112     -17381120      -17381120       1192.0218     -17379928      -2409.9836     -2406.4394     -2398.4799      2.5535486     -0.15182822    -7.38887        14026.262    
    124000   398.11031      0.062          0.24216541     0.24216829     0.24154923    -2387.9691      633.94472      633.94472      633.94472      2.5477345e+08  1.8374135     -17369216      -17369216       1185.5045     -17368031      -2389.9867     -2390.0152     -2383.9055      1.8038756      0.46931561    -9.1208704      14037.453    
    125000   395.5955       0.0625         0.23998048     0.24032111     0.2399853     -2369.5596      634.24319      634.24319      634.24319      2.5513347e+08  1.8348208     -17357387      -17357387       1178.0159     -17356209      -2368.4232     -2371.7849     -2368.4707      0.0028348679   2.0200033     -9.1097222      13928.126    
    126000   393.73059      0.063          0.23799281     0.23845156     0.23816519    -2350.8827      634.54166      634.54166      634.54166      2.5549383e+08  1.8322329     -17345638      -17345638       1172.4624     -17344466      -2348.8064     -2353.334      -2350.5077     -2.0935363      1.6510895     -8.5264702      14041.714    
    127000   392.63112      0.0635         0.23650251     0.23675514     0.23615463    -2333.7849      634.84012      634.84012      634.84012      2.5585453e+08  1.8296498     -17333966      -17333966       1169.1884     -17332797      -2334.0983     -2336.5915     -2330.665      -1.6893422     -0.42138254    -8.0111956      13977.587    
    128000   391.97418      0.064          0.2353066      0.2352316      0.23411732    -2318.1364      635.13859      635.13859      635.13859      2.5621556e+08  1.8270716     -17322361      -17322361       1167.2322     -17321194      -2322.2956     -2321.5554     -2310.5583      0.49572499    -0.29551796    -9.0739426      13994.134    
    129000   391.33307      0.0645         0.23405613     0.23387571     0.23249344    -2304.22        635.43706      635.43706      635.43706      2.5657694e+08  1.8244983     -17310818      -17310818       1165.323      -17309653      -2309.9544     -2308.1738     -2294.5319      1.8291511      1.6278497     -10.551532      13755.089    
    130000   390.29779      0.065          0.23255608     0.23246747     0.23125014    -2290.5624      635.73553      635.73553      635.73553      2.5693865e+08  1.8219298     -17299335      -17299335       1162.2402     -17298173      -2295.15       -2294.2756     -2282.2614      1.7337891      2.5583455     -11.284151      13943.697    
    131000   388.85174      0.0655         0.23052893     0.23068044     0.22977605    -2273.1653      636.03399      636.03399      636.03399      2.5730071e+08  1.8193661     -17287925      -17287925       1157.9341     -17286767      -2275.1437     -2276.6389     -2267.7133      0.93225913     2.7038364     -10.948618      13943.626    
    132000   387.09037      0.066          0.22823848     0.22869236     0.22796566    -2253.1343      636.33246      636.33246      636.33246      2.576631e+08   1.8168072     -17276596      -17276596       1152.689      -17275444      -2252.5386     -2257.0181     -2249.8462      0.73298208     2.3049859     -9.9389583      13964.067    
    133000   384.80042      0.0665         0.22613222     0.22674473     0.2259198     -2233.0677      636.63093      636.63093      636.63093      2.5802584e+08  1.8142531     -17265351      -17265351       1145.8699     -17264205      -2231.7515     -2237.7965     -2229.655       0.52743525     0.88378264    -9.9632353      13952.825    
    134000   382.29015      0.067          0.22460313     0.22497938     0.2239837     -2215.8606      636.9294       636.9294       636.9294       2.5838891e+08  1.8117038     -17254177      -17254177       1138.3948     -17253039      -2216.6605     -2220.3739     -2210.5473      0.055326322   -0.32922755    -11.132677      13976.946    
    135000   380.19241      0.0675         0.22353918     0.22345297     0.22244978    -2202.2927      637.22786      637.22786      637.22786      2.5875233e+08  1.8091593     -17243065      -17243065       1132.1481     -17241933      -2206.1602     -2205.3094     -2195.4086      0.23755404    -0.7555218     -11.345697      13830.069    
    136000   378.97036      0.068          0.22244929     0.22208699     0.22075185    -2188.6278      637.52633      637.52633      637.52633      2.5911609e+08  1.8066195     -17232014      -17232014       1128.509      -17230885      -2195.4038     -2191.8282     -2178.6514      0.49132763    -0.18330803    -10.263545      13742.686    
    137000   378.06698      0.0685         0.22096425     0.22068603     0.21900956    -2173.4019      637.8248       637.8248       637.8248       2.5948019e+08  1.8040845     -17221025      -17221025       1125.8189     -17219899      -2180.7476     -2178.0018     -2161.4563      1.0497729      1.2792794     -9.4308877      13882.337    
    138000   377.01403      0.069          0.21901422     0.21899554     0.21753945    -2156.5892      638.12326      638.12326      638.12326      2.5984462e+08  1.8015543     -17210107      -17210107       1122.6834     -17208985      -2161.5023     -2161.318      -2146.9474      1.1212158      3.5506742     -9.1934394      13813.133    
    139000   376.12985      0.0695         0.21695869     0.217243       0.21624619    -2139.8071      638.42173      638.42173      638.42173      2.602094e+08   1.7990287     -17199268      -17199268       1120.0505     -17198148      -2141.2158     -2144.0217     -2134.1839      1.6677823      4.4616057     -9.8263197      14051.444    
    140000   375.31796      0.07           0.21539336     0.21589488     0.21496571    -2126.0102      638.7202       638.7202       638.7202       2.6057452e+08  1.7965079     -17188495      -17188495       1117.6328     -17187378      -2125.7672     -2130.7168     -2121.5466      2.2246055      3.769996      -10.566103      13821.555    
    141000   374.18864      0.0705         0.21408004     0.21470533     0.21373456    -2113.7262      639.01867      639.01867      639.01867      2.6093999e+08  1.7939918     -17177771      -17177771       1114.2699     -17176657      -2112.8057     -2118.9769     -2109.3961      1.3492369      0.5470096     -10.249868      13913.008    
    142000   372.83144      0.071          0.21270339     0.21321753     0.21243603    -2100.0311      639.31713      639.31713      639.31713      2.6130579e+08  1.7914804     -17167098      -17167098       1110.2284     -17165988      -2099.2192     -2104.2935     -2096.5806      0.47262882    -2.8544816     -10.428792      13867.496    
    143000   371.59054      0.0715         0.21142187     0.21139599     0.21088658    -2084.7255      639.6156       639.6156       639.6156       2.6167194e+08  1.7889736     -17156490      -17156490       1106.5332     -17155384      -2086.5716     -2086.3162     -2081.2887      0.74325454    -2.7908688     -11.67467       13925.317    
    144000   370.49582      0.072          0.21012258     0.20972286     0.20920778    -2069.4242      639.91407      639.91407      639.91407      2.6203842e+08  1.7864716     -17145954      -17145954       1103.2733     -17144850      -2073.7487     -2069.8037     -2064.7202      0.74536153     0.56890769    -11.725957      14069.934    
    145000   369.08839      0.0725         0.20868177     0.20837042     0.20755771    -2054.8068      640.21254      640.21254      640.21254      2.6240525e+08  1.7839742     -17135479      -17135479       1099.0822     -17134380      -2059.529      -2056.4561     -2048.4353      0.12331238     3.2031672     -10.307973      13945.056    
    146000   367.29046      0.073          0.20725918     0.20705919     0.20607027    -2040.9199      640.511        640.511        640.511        2.6277242e+08  1.7814814     -17125065      -17125065       1093.7283     -17123971      -2045.4891     -2043.5153     -2033.7554     -0.057475369    2.719546      -8.7728374      13854.34     
    147000   365.27615      0.0735         0.20595054     0.20561289     0.20470956    -2027.3805      640.80947      640.80947      640.80947      2.6313994e+08  1.7789933     -17114705      -17114705       1087.73       -17113618      -2032.5738     -2029.2415     -2020.3263      1.3126064      1.6531033     -8.6825174      13831.293    
    148000   363.22542      0.074          0.2046589      0.2043945      0.20352012    -2015.2102      641.10794      641.10794      641.10794      2.6350779e+08  1.7765098     -17104394      -17104394       1081.6233     -17103312      -2019.8263     -2017.2169     -2008.5874      3.2045388      0.75878861    -9.7836461      14069.555    
    149000   361.67338      0.0745         0.20334621     0.20351219     0.20251577    -2004.6852      641.40641      641.40641      641.40641      2.6387599e+08  1.774031      -17094128      -17094128       1077.0016     -17093051      -2006.871      -2008.5092     -1998.6753      4.4265343     -0.74116316    -9.8227007      13794.506    
    150000   360.9223       0.075          0.20209278     0.2026727      0.20155878    -1994.6517      641.70487      641.70487      641.70487      2.6424453e+08  1.7715567     -17083900      -17083900       1074.765      -17082825      -1994.5007     -2000.224      -1989.2305      4.8091429     -1.3285229     -7.9478102      13474.35     
    151000   360.70135      0.0755         0.20085133     0.20142788     0.20049308    -1982.9667      642.00334      642.00334      642.00334      2.6461342e+08  1.7690871     -17073720      -17073720       1074.107      -17072646      -1982.2486     -1987.9386     -1978.7128      4.1978554      0.095207827   -6.2115118      13886.157    
    152000   360.43424      0.076          0.19968513     0.20020192     0.19949286    -1971.8066      642.30181      642.30181      642.30181      2.6498265e+08  1.7666221     -17063589      -17063589       1073.3116     -17062516      -1970.739      -1975.8393     -1968.8415      2.759735       1.4997777     -6.6554869      13880.837    
    153000   359.6386       0.0765         0.19872002     0.19918166     0.19855107    -1962.177       642.60028      642.60028      642.60028      2.6535222e+08  1.7641616     -17053503      -17053503       1070.9423     -17052432      -1961.2142     -1965.7701     -1959.5467      1.582084       0.83803363    -8.6629409      13854.554    
    154000   358.64353      0.077          0.19775469     0.19820948     0.19740444    -1952.031       642.89874      642.89874      642.89874      2.6572213e+08  1.7617057     -17043458      -17043458       1067.9792     -17042390      -1951.6871     -1956.1755     -1948.2303      0.7591518     -1.2981329     -10.576293      13710.873    
    155000   357.51294      0.0775         0.19658089     0.19700547     0.1960138     -1939.6337      643.19721      643.19721      643.19721      2.6609239e+08  1.7592543     -17033463      -17033463       1064.6125     -17032398      -1940.1026     -1944.2928     -1934.5058      0.41356753    -3.7933498     -10.8723        14015.372    
    156000   356.27463      0.078          0.19539145     0.19558091     0.19449057    -1926.0233      643.49568      643.49568      643.49568      2.6646299e+08  1.7568075     -17023516      -17023516       1060.925      -17022455      -1928.3637     -1930.2335     -1919.4727      0.36160204    -4.7871599     -9.3965271      13940.597    
    157000   354.95128      0.0785         0.19442313     0.19424998     0.19323254    -1914.3207      643.79415      643.79415      643.79415      2.6683394e+08  1.7543652     -17013621      -17013621       1056.9843     -17012564      -1918.8071     -1917.0982     -1907.0569      0.17569952    -2.7320408     -7.6931491      13949.233    
    158000   353.75522      0.079          0.1936322      0.19328894     0.19245846    -1906.0107      644.09261      644.09261      644.09261      2.6720523e+08  1.7519275     -17003762      -17003762       1053.4226     -17002709      -1911.0012     -1907.6135     -1899.4174      0.080121321   -0.40603579    -6.8132385      13996.74     
    159000   352.81947      0.0795         0.19275799     0.1926561      0.19180357    -1898.8984      644.39108      644.39108      644.39108      2.6757686e+08  1.7494943     -16993936      -16993936       1050.6361     -16992885      -1902.3734     -1901.3679     -1892.954       1.1459063     -0.20527435    -7.2735112      13880.156    
    160000   352.36214      0.08           0.19163255     0.19209803     0.19094185    -1890.5253      644.68955      644.68955      644.68955      2.6794884e+08  1.7470655     -16984143      -16984143       1049.2743     -16983094      -1891.2663     -1895.8602     -1884.4495      2.3238491     -0.95311132    -7.3087162      13853.767    
    161000   351.77023      0.0805         0.19054924     0.19148341     0.19006015    -1882.039       644.98801      644.98801      644.98801      2.6832117e+08  1.7446413     -16974382      -16974382       1047.5117     -16973334      -1880.5748     -1889.7943     -1875.7478      2.06137       -2.2137935     -7.1852888      13913.104    
    162000   350.6992       0.081          0.18960395     0.19055613     0.18917916    -1872.9805      645.28648      645.28648      645.28648      2.6869383e+08  1.7422215     -16964651      -16964651       1044.3223     -16963607      -1871.2455     -1880.6427     -1867.0531      0.034280982   -2.8506723     -6.8779226      14082.024    
    163000   349.43262      0.0815         0.1886065      0.18938601     0.18825343    -1862.8043      645.58495      645.58495      645.58495      2.6906685e+08  1.7398063     -16954960      -16954960       1040.5507     -16953920      -1861.4014     -1869.0946     -1857.9169     -1.5060617     -1.6959376     -6.0955333      13939.5      
    164000   348.37446      0.082          0.18752811     0.18821591     0.1872219     -1852.0139      645.88342      645.88342      645.88342      2.6944021e+08  1.7373954     -16945314      -16945314       1037.3996     -16944277      -1850.7585     -1857.5466     -1847.7365     -0.026570747   -0.5240725     -6.298553       13946.37     
    165000   347.75957      0.0825         0.18662212     0.18699476     0.18612947    -1841.4223      646.18188      646.18188      646.18188      2.6981391e+08  1.7349891     -16935713      -16935713       1035.5686     -16934678      -1841.8172     -1845.4948     -1836.9551      3.0317702     -0.82054827    -7.2831233      13917.686    
    166000   346.79942      0.083          0.18603062     0.18610466     0.1853569     -1834.0067      646.48035      646.48035      646.48035      2.7018796e+08  1.7325872     -16926141      -16926141       1032.7095     -16925108      -1835.9795     -1836.7102     -1829.3304      4.3409378     -2.366409      -8.2986473      13945.534    
    167000   345.28665      0.0835         0.18547452     0.18540663     0.18476233    -1827.9249      646.77882      646.77882      646.77882      2.7056235e+08  1.7301897     -16916593      -16916593       1028.2047     -16915565      -1830.4912     -1829.8212     -1823.4624      2.3099649     -3.2882375     -9.3393565      14010.493    
    168000   344.55497      0.084          0.18467811     0.18462804     0.18397358    -1820.1488      647.07729      647.07729      647.07729      2.7093709e+08  1.7277966     -16907077      -16907077       1026.0259     -16906051      -1822.6313     -1822.1371     -1815.6781     -0.68439893    -2.5069184     -9.5772575      13783.182    
    169000   344.57877      0.0845         0.18373753     0.18396536     0.18310462    -1812.0158      647.37575      647.37575      647.37575      2.7131218e+08  1.7254079     -16897597      -16897597       1026.0968     -16896571      -1813.3484     -1815.597      -1807.1021     -2.5965137     -1.8241713     -8.3333789      13933.577    
    170000   344.47833      0.085          0.18283269     0.18346224     0.18226734    -1804.6296      647.67422      647.67422      647.67422      2.7168761e+08  1.7230237     -16888138      -16888138       1025.7976     -16887112      -1804.4184     -1810.6315     -1798.8388     -3.1024477     -1.5137978     -5.8687958      13922.75     
    171000   344.13864      0.0855         0.18216728     0.18279634     0.18162784    -1798.1461      647.97269      647.97269      647.97269      2.7206339e+08  1.7206438     -16878701      -16878701       1024.7861     -16877676      -1797.8512     -1804.0596     -1792.5274     -1.5361231     -1.0616209     -4.426443       13940.243    
    172000   343.84677      0.086          0.18163702     0.18185403     0.18097205    -1791.1443      648.27116      648.27116      648.27116      2.7243951e+08  1.7182683     -16869295      -16869295       1023.917      -16868271      -1792.618      -1794.7597     -1786.0553      1.5498323     -1.7700979     -5.3645902      13913.841    
    173000   343.4255       0.0865         0.18114858     0.18093953     0.18012952    -1783.7573      648.56962      648.56962      648.56962      2.7281598e+08  1.7158972     -16859930      -16859930       1022.6625     -16858907      -1787.7975     -1785.7343     -1777.7402      3.0357252     -3.4684849     -7.4711732      13920.218    
    174000   342.56301      0.087          0.18061503     0.18021603     0.17949226    -1777.5255      648.86809      648.86809      648.86809      2.731928e+08   1.7135305     -16850587      -16850587       1020.0942     -16849567      -1782.5318     -1778.594      -1771.4509      2.0735036     -3.5723294     -7.9098486      13952.281    
    175000   341.55531      0.0875         0.1797656      0.17955241     0.17909108    -1771.2282      649.16656      649.16656      649.16656      2.7356997e+08  1.7111681     -16841252      -16841252       1017.0934     -16840235      -1774.1485     -1772.0445     -1767.4916      0.7013153     -2.8685132     -6.6126092      13963.792    
    176000   340.936        0.088          0.17866113     0.17882296     0.17859261    -1763.5552      649.46503      649.46503      649.46503      2.7394748e+08  1.70881       -16831940      -16831940       1015.2492     -16830925      -1763.2483     -1764.8454     -1762.572      -0.011759476   -2.968413      -5.111219       13967.883    
    177000   340.47592      0.0885         0.17778403     0.17816318     0.17796677    -1756.4405      649.76349      649.76349      649.76349      2.7432534e+08  1.7064563     -16822664      -16822664       1013.8791     -16821650      -1754.592      -1758.3339     -1756.3955     -0.42621271    -3.3136625     -3.8029865      13801.647    
    178000   340.0341       0.089          0.17721458     0.17747218     0.17699971    -1749.1125      650.06196      650.06196      650.06196      2.7470354e+08  1.7041069     -16813428      -16813428       1012.5635     -16812415      -1748.972      -1751.5142     -1746.8513     -1.5485544     -2.7278518     -4.4534721      13949.17     
    179000   339.66313      0.0895         0.17666941     0.17663351     0.17584109    -1740.7484      650.36043      650.36043      650.36043      2.750821e+08   1.7017617     -16804224      -16804224       1011.4588     -16803213      -1743.5915     -1743.2372     -1735.4166     -2.3288495     -1.6251076     -6.502704       13990.449    
    180000   339.0067       0.09           0.17598761     0.17587092     0.17501167    -1733.2682      650.65889      650.65889      650.65889      2.75461e+08    1.6994209     -16795041      -16795041       1009.5041     -16794032      -1736.8626     -1735.711      -1727.2309     -1.3103434     -1.5995491     -7.9010944      13807.184    
    181000   338.24352      0.0905         0.17521466     0.17531169     0.17436999    -1726.7747      650.95736      650.95736      650.95736      2.7584024e+08  1.6970844     -16785878      -16785878       1007.2315     -16784871      -1729.2342     -1730.1918     -1720.898       0.92548356    -2.2347371     -7.0067141      13873.623    
    182000   337.86134      0.091          0.17457818     0.17476419     0.1738395     -1721.1346      651.25583      651.25583      651.25583      2.7621984e+08  1.6947522     -16776740      -16776740       1006.0934     -16775734      -1722.9527     -1724.7885     -1715.6625      2.4592582     -2.6416497     -4.4052123      13684.793    
    183000   337.86977      0.0915         0.17420118     0.17435803     0.17343419    -1717.2248      651.5543       651.5543       651.5543       2.7659979e+08  1.6924243     -16767626      -16767626       1006.1185     -16766620      -1719.232      -1720.7799     -1711.6624      1.4936067     -3.3939459     -2.3599956      13855.955    
    184000   337.7707       0.092          0.17388361     0.17386171     0.17302832    -1713.2121      651.85276      651.85276      651.85276      2.7698008e+08  1.6901006     -16758531      -16758531       1005.8235     -16757526      -1716.0978     -1715.8817     -1707.6568     -1.554462      -3.9018521     -2.6322948      13735.549    
    185000   337.51032      0.0925         0.17332308     0.17303541     0.17242506    -1706.6652      652.15123      652.15123      652.15123      2.7736072e+08  1.6877811     -16749449      -16749449       1005.0481     -16748444      -1710.5658     -1707.7267     -1701.703      -2.9904105     -2.8795662     -4.4770734      13804.402    
    186000   336.99051      0.093          0.17255256     0.17212979     0.17172055    -1698.8334      652.4497       652.4497       652.4497       2.7774171e+08  1.6854659     -16740388      -16740388       1003.5002     -16739385      -1702.9613     -1698.789      -1694.75       -1.4353831     -1.6494459     -5.5190605      13844.906    
    187000   336.23975      0.0935         0.1719119      0.17137894     0.17108789    -1692.1744      652.74817      652.74817      652.74817      2.7812305e+08  1.683155      -16731353      -16731353       1001.2645     -16730352      -1696.6385     -1691.3786     -1688.5062      0.57151633    -0.98095682    -4.8743476      13839.479    
    188000   335.60158      0.094          0.17140793     0.1708121      0.1704933     -1686.6957      653.04663      653.04663      653.04663      2.7850474e+08  1.6808482     -16722349      -16722349       999.36421     -16721350      -1691.6648     -1685.7844     -1682.6381      0.85976905    -0.64569348    -3.5464237      13853.57     
    189000   335.39683      0.0945         0.17090628     0.1703097      0.16981555    -1681.163       653.3451       653.3451       653.3451       2.7888677e+08  1.6785457     -16713370      -16713370       998.75448     -16712371      -1686.7138     -1680.8261     -1675.9492     -0.32245888    -0.24825459    -2.5787219      13871        
    190000   335.44621      0.095          0.17031646     0.1699124      0.16909578    -1675.5478      653.64357      653.64357      653.64357      2.7926916e+08  1.6762473     -16704408      -16704408       998.90154     -16703409      -1680.8927     -1676.905      -1668.8456     -0.87547213    -0.35841728    -2.8740046      13837.278    
    191000   335.56923      0.0955         0.16967684     0.16963743     0.16848793    -1670.5394      653.94204      653.94204      653.94204      2.7965189e+08  1.6739532     -16695461      -16695461       999.26787     -16694462      -1674.5802     -1674.1913     -1662.8465     -0.14776799    -0.76981454    -4.486344       13789.914    
    192000   335.35045      0.096          0.16913747     0.16947957     0.16820875    -1667.3272      654.2405       654.2405       654.2405       2.8003498e+08  1.6716633     -16686527      -16686527       998.61638     -16685528      -1669.257      -1672.6333     -1660.0913      0.034086301   -0.78330393    -6.3963748      13766.463    
    193000   334.89579      0.0965         0.16865039     0.1689949      0.16797077    -1663.3475      654.53897      654.53897      654.53897      2.8041841e+08  1.6693775     -16677604      -16677604       997.26248     -16676607      -1664.4499     -1667.85       -1657.7426     -0.59852803    -0.95624053    -6.6165816      13794.887    
    194000   334.65325      0.097          0.1681657      0.16814743     0.16752265    -1657.4909      654.83744      654.83744      654.83744      2.808022e+08   1.6670959     -16668706      -16668706       996.54024     -16667709      -1659.6664     -1659.4861     -1653.3201     -1.0737581     -2.2284511     -4.6722869      13833.772    
    195000   334.26444      0.0975         0.16766752     0.16723783     0.16696458    -1651.0237      655.13591      655.13591      655.13591      2.8118633e+08  1.6648184     -16659833      -16659833       995.38242     -16658838      -1654.7497     -1650.509      -1647.8123     -1.64768       -2.8827986     -2.9961487      13877.004    
    196000   333.78482      0.098          0.16707334     0.16642222     0.16634335    -1644.3422      655.43437      655.43437      655.43437      2.8157082e+08  1.6625451     -16650979      -16650979       993.95419     -16649985      -1648.8857     -1642.4596     -1641.6813     -1.2902652     -2.3309219     -3.0319247      13944.139    
    197000   333.54401      0.0985         0.16647361     0.16581322     0.16570088    -1638.2522      655.73284      655.73284      655.73284      2.8195565e+08  1.660276      -16642147      -16642147       993.23709     -16641154      -1642.9668     -1636.4492     -1635.3405     -0.58024078    -1.6256307     -4.2535172      13920.491    
    198000   333.39325      0.099          0.16588939     0.16553714     0.16495401    -1632.965       656.03131      656.03131      656.03131      2.8234084e+08  1.6580109     -16633339      -16633339       992.78817     -16632347      -1637.201      -1633.7245     -1627.9695     -0.53389931    -1.6909375     -6.030254       13961.019    
    199000   333.31055      0.0995         0.16539004     0.16537326     0.16420486    -1628.3186      656.32978      656.32978      656.32978      2.8272637e+08  1.65575       -16624553      -16624553       992.54191     -16623561      -1632.2728     -1632.1071     -1620.576      -0.78639971    -1.5243356     -5.3897631      13944.144    
    200000   333.13568      0.1            0.16507172     0.16502064     0.16374716    -1624.6057      656.62824      656.62824      656.62824      2.8311226e+08  1.6534932     -16615781      -16615781       992.02118     -16614789      -1629.1312     -1628.6271     -1616.0588      0.58300963    -0.59766712    -2.7154265      13373.564    
    201000   332.64342      0.1005         0.16482621     0.16443314     0.16333476    -1620.5086      656.92671      656.92671      656.92671      2.834985e+08   1.6512405     -16607021      -16607021       990.5553      -16606031      -1626.7082     -1622.829      -1611.9887      1.86753       -0.032298574   -2.1359855      14068.196    
    202000   332.35017      0.101          0.16422216     0.16375048     0.1626101     -1613.8917      657.22518      657.22518      657.22518      2.8388509e+08  1.6489918     -16598285      -16598285       989.68205     -16597295      -1620.7467     -1616.0916     -1604.8369      1.5214341     -1.3601619     -5.0838629      13917.239    
    203000   332.46481      0.1015         0.16336729     0.16306694     0.16195546    -1606.6772      657.52364      657.52364      657.52364      2.8427203e+08  1.6467473     -16589578      -16589578       990.02342     -16588588      -1612.3098     -1609.3456     -1598.3761     -0.38597322    -3.920602      -6.9006122      13859.887    
    204000   332.54701      0.102          0.16273583     0.16251056     0.1618535     -1602.434       657.82211      657.82211      657.82211      2.8465932e+08  1.6445068     -16580889      -16580889       990.2682      -16579899      -1606.0778     -1603.8545     -1597.3698     -2.3051749     -4.7189179     -5.4912933      13918.617    
    205000   332.32338      0.1025         0.16248842     0.16227072     0.16200852    -1601.3411      658.12058      658.12058      658.12058      2.8504696e+08  1.6422704     -16572207      -16572207       989.60227     -16571217      -1603.636      -1601.4875     -1598.8997     -2.2156893     -2.7297318     -3.7974805      13859.826    
    206000   332.1771       0.103          0.16241032     0.16216266     0.16172903    -1599.8092      658.41905      658.41905      658.41905      2.8543496e+08  1.6400381     -16563523      -16563523       989.16668     -16562534      -1602.8652     -1600.421      -1596.1414     -1.0887241     -1.4750218     -3.7058873      13701.378    
    207000   332.35888      0.1035         0.16215425     0.16172856     0.16093103    -1594.9135      658.71751      658.71751      658.71751      2.858233e+08   1.6378097     -16554852      -16554852       989.708       -16553862      -1600.338      -1596.1368     -1588.2658      0.25662588    -1.8345135     -2.6969217      13851.782    
    208000   332.45196      0.104          0.16156491     0.16084981     0.16012245    -1587.4239      659.01598      659.01598      659.01598      2.86212e+08    1.6355855     -16546204      -16546204       989.98516     -16545214      -1594.5217     -1587.4642     -1580.2858      1.1604204     -1.2733001     -1.2990211      14029.043    
    209000   331.79538      0.1045         0.16104932     0.16005085     0.15950598    -1581.0713      659.31445      659.31445      659.31445      2.8660105e+08  1.6333652     -16537584      -16537584       988.02999     -16536596      -1589.4332     -1579.5791     -1574.2017      1.40654       -0.011126251   -1.5978554      13654.474    
    210000   330.90118      0.105          0.16047877     0.15948837     0.15883271    -1575.129       659.61292      659.61292      659.61292      2.8699046e+08  1.631149      -16528989      -16528989       985.36722     -16528003      -1583.8023     -1574.0279     -1567.5569      1.3588392     -0.13811383    -2.8931799      13853.794    
    211000   330.37664      0.1055         0.15978389     0.1591852      0.15841501    -1570.4716      659.91138      659.91138      659.91138      2.8738021e+08  1.6289367     -16520410      -16520410       983.80521     -16519426      -1576.9444     -1571.0358     -1563.4346      0.71095537    -0.21313069    -3.3147065      13774.808    
    212000   330.14865      0.106          0.15910991     0.1590813      0.15825261    -1567.3783      660.20985      660.20985      660.20985      2.8777032e+08  1.6267285     -16511842      -16511842       983.12629     -16510859      -1570.2927     -1570.0104     -1561.8318     -0.49641614     0.67016632    -2.1505114      13915.021    
    213000   330.3764       0.1065         0.15866332     0.15885641     0.15791898    -1564.0717      660.50832      660.50832      660.50832      2.8816078e+08  1.6245243     -16503284      -16503284       983.8045      -16502300      -1565.8853     -1567.7909     -1558.5391     -1.4434205      0.92544175    -1.1178488      13864.575    
    214000   330.9792       0.107          0.1583735      0.15826806     0.1574126     -1559.5169      660.80679      660.80679      660.80679      2.885516e+08   1.622324      -16494748      -16494748       985.59954     -16493762      -1563.0249     -1561.9843     -1553.5416     -0.66708705    -0.49788681    -1.9015455      13887.844    
    215000   331.30231      0.1075         0.15806682     0.15748274     0.15691381    -1554.2837      661.10525      661.10525      661.10525      2.8894277e+08  1.6201277     -16486234      -16486234       986.56171     -16485247      -1559.9982     -1554.2338     -1548.6189      0.91199838    -1.9608348     -4.444949       14000.187    
    216000   331.31713      0.108          0.1576398      0.15691188     0.15632455    -1549.0624      661.40372      661.40372      661.40372      2.8933429e+08  1.6179354     -16477738      -16477738       986.60585     -16476752      -1555.7839     -1548.5999     -1542.8033      1.3152779     -1.7475921     -6.0485812      13761.595    
    217000   331.24139      0.1085         0.15724347     0.15660824     0.15590523    -1545.3802      661.70219      661.70219      661.70219      2.8972616e+08  1.615747      -16469258      -16469258       986.38029     -16468271      -1551.8724     -1545.6031     -1538.665       0.20430012    -0.84452424    -5.0213748      13948.216    
[...]
   3089000   324.86294      1.5445         0.0086153378   0.0084790855   0.0081841742  -83.160121      1518.9005      1518.9005      1518.9005      3.5041927e+09  0.13358974    -4885347.2     -4885347.2      967.38637     -4884379.8     -85.026774     -83.682068     -80.77152       0.91263812     0.42110751     0.68370004     13903.744    
   3090000   324.86721      1.545          0.0086095428   0.0084693901   0.0081769066  -83.085252      1519.199       1519.199       1519.199       3.5062589e+09  0.13351102    -4883002.4     -4883002.4      967.39909     -4882035       -84.969581     -83.586381     -80.699794      0.90186905     0.39879467     0.67071861     13751.577    
   3091000   324.83464      1.5455         0.0086035936   0.0084587992   0.0081691072  -83.005182      1519.4974      1519.4974      1519.4974      3.5083259e+09  0.13343236    -4880659       -4880659        967.30209     -4879691.7     -84.910867     -83.481858     -80.62282       0.88559395     0.39979522     0.68860114     13749.414    
   3092000   324.79632      1.546          0.0085968266   0.0084495696   0.0081602741  -82.923498      1519.7959      1519.7959      1519.7959      3.5103936e+09  0.13335376    -4878317       -4878317        967.18798     -4877349.8     -84.844082     -83.390768     -80.535644      0.87152645     0.41136009     0.72207666     13972.937    
   3093000   324.76573      1.5465         0.0085884029   0.0084441193   0.0081519265  -82.850395      1520.0944      1520.0944      1520.0944      3.5124622e+09  0.13327522    -4875976.3     -4875976.3      967.09688     -4875009.2     -84.760946     -83.336978     -80.453259      0.86851637     0.41700078     0.74634599     13878.592    
   3094000   324.74146      1.547          0.008577624    0.0084436926   0.0081454478  -82.792218      1520.3928      1520.3928      1520.3928      3.5145316e+09  0.13319675    -4873636.5     -4873636.5      967.02462     -4872669.5     -84.654567     -83.332767     -80.389319      0.88469116     0.41344102     0.74807248     13794.293    
   3095000   324.72707      1.5475         0.0085671838   0.0084450066   0.0081416045  -82.749551      1520.6913      1520.6913      1520.6913      3.5166018e+09  0.13311834    -4871297.1     -4871297.1      966.98177     -4870330.2     -84.55153      -83.345735     -80.351389      0.91145844     0.41321022     0.73350601     13624.775    
   3096000   324.72464      1.548          0.0085578434   0.0084423954   0.0081378074  -82.697742      1520.9898      1520.9898      1520.9898      3.5186729e+09  0.13303999    -4868958.1     -4868958.1      966.97454     -4867991.1     -84.459348     -83.319964     -80.313914      0.93000602     0.41996237     0.71402646     13725.26     
   3097000   324.71897      1.5485         0.0085501022   0.0084339752   0.0081326296  -82.627542      1521.2883      1521.2883      1521.2883      3.5207447e+09  0.1329617     -4866619.9     -4866619.9      966.95763     -4865652.9     -84.382948     -83.236863     -80.262814      0.94003706     0.42881838     0.69769292     13862.834    
   3098000   324.70352      1.549          0.0085444362   0.008421702    0.0081265083  -82.548389      1521.5867      1521.5867      1521.5867      3.5228173e+09  0.13288347    -4864282.9     -4864282.9      966.91164     -4863316       -84.327029     -83.115737     -80.202401      0.94612191     0.42902531     0.6926241      13651.114    
   3099000   324.69324      1.5495         0.008539463    0.0084096381   0.0081201188  -82.471321      1521.8852      1521.8852      1521.8852      3.5248908e+09  0.1328053     -4861947.4     -4861947.4      966.88104     -4860980.5     -84.277947     -82.996675     -80.139342      0.94038241     0.41460241     0.69562951     13716.022    
   3100000   324.70122      1.55           0.008534125    0.0084000407   0.0081137852  -82.401352      1522.1837      1522.1837      1522.1837      3.5269651e+09  0.1327272     -4859613.2     -4859613.2      966.90478     -4858646.3     -84.225265     -82.901957     -80.076834      0.91893005     0.39916342     0.69566202     13405.201    
   3101000   324.73499      1.5505         0.0085291967   0.0083922961   0.0081084313  -82.342048      1522.4821      1522.4821      1522.4821      3.5290402e+09  0.13264915    -4857280.1     -4857280.1      967.00534     -4856313       -84.176627     -82.825523     -80.023995      0.8981436      0.3870425      0.69537829     13583.691    
   3102000   324.79383      1.551          0.0085251369   0.0083867169   0.0081044454  -82.297226      1522.7806      1522.7806      1522.7806      3.5311161e+09  0.13257117    -4854947.6     -4854947.6      967.18055     -4853980.4     -84.136559     -82.77046      -79.984658      0.88962033     0.36633222     0.69611888     13660.306    
   3103000   324.87093      1.5515         0.0085193538   0.0083844079   0.0080999703  -82.255883      1523.0791      1523.0791      1523.0791      3.5331928e+09  0.13249325    -4852615.7     -4852615.7      967.41016     -4851648.3     -84.079484     -82.747672     -79.940491      0.89164924     0.34116396     0.69260017     13796.298    
   3104000   324.93452      1.552          0.0085123568   0.0083832992   0.0080950627  -82.213073      1523.3775      1523.3775      1523.3775      3.5352703e+09  0.13241539    -4850284.1     -4850284.1      967.59951     -4849316.5     -84.01043      -82.73673      -79.892057      0.89769364     0.34225059     0.69048757     13924.641    
   3105000   324.94232      1.5525         0.0085074268   0.008379003    0.008090733   -82.168477      1523.676       1523.676       1523.676       3.5373487e+09  0.13233759    -4847952.8     -4847952.8      967.62274     -4846985.2     -83.961775     -82.69433      -79.849327      0.90202805     0.37848106     0.6930902      13777.858    
   3106000   324.88481      1.553          0.0085044149   0.0083708133   0.0080867138  -82.118404      1523.9745      1523.9745      1523.9745      3.5394279e+09  0.13225985    -4845621.8     -4845621.8      967.45148     -4844654.3     -83.932049     -82.613504     -79.80966       0.89328982     0.42756809     0.69595599     13726.49     
   3107000   324.7868       1.5535         0.0084990785   0.0083601639   0.0080795751  -82.042331      1524.2729      1524.2729      1524.2729      3.5415078e+09  0.13218217    -4843291.3     -4843291.3      967.15962     -4842324.1     -83.879384     -82.508403     -79.739207      0.87323624     0.46375591     0.69766658     13710.979    
   3108000   324.68577      1.554          0.0084895976   0.0083491795   0.0080688547  -81.939738      1524.5714      1524.5714      1524.5714      3.5435886e+09  0.13210455    -4840962.4     -4840962.4      966.85877     -4839995.5     -83.785814     -82.399995     -79.633404      0.85978814     0.47979366     0.70406212     13516.067    
   3109000   324.60286      1.5545         0.0084799999   0.0083411015   0.0080582933  -81.846845      1524.8699      1524.8699      1524.8699      3.5456702e+09  0.132027      -4838635.6     -4838635.6      966.61188     -4837669       -83.691092     -82.320271     -79.529172      0.86858899     0.48563873     0.71219667     13581.774    
   3110000   324.5498       1.555          0.008474062    0.0083361707   0.0080502124  -81.784505      1525.1683      1525.1683      1525.1683      3.5477527e+09  0.1319495     -4836310.2     -4836310.2      966.45389     -4835343.7     -83.632489     -82.271608     -79.449419      0.89956171     0.4896339      0.71414594     13721.918    
   3111000   324.54093      1.5555         0.0084714177   0.0083326799   0.0080449465  -81.747         1525.4668      1525.4668      1525.4668      3.5498359e+09  0.13187206    -4833985.1     -4833985.1      966.42746     -4833018.7     -83.606393     -82.237157     -79.397449      0.93281644     0.48869175     0.71046875     13692.146    
   3112000   324.58524      1.556          0.0084702144   0.0083301415   0.0080419233  -81.724744      1525.7653      1525.7653      1525.7653      3.5519199e+09  0.13179469    -4831660.1     -4831660.1      966.55943     -4830693.5     -83.594516     -82.212105     -79.367612      0.9472718      0.47672319     0.70615538     13774.308    
   3113000   324.66375      1.5565         0.0084662298   0.0083286312   0.0080399022  -81.700019      1526.0637      1526.0637      1526.0637      3.5540048e+09  0.13171738    -4829334.9     -4829334.9      966.79321     -4828368.1     -83.555192     -82.197199     -79.347665      0.93635233     0.46164039     0.7017597      13147.882    
   3114000   324.73355      1.557          0.0084580196   0.00832673     0.0080383952  -81.661797      1526.3622      1526.3622      1526.3622      3.5560905e+09  0.13164012    -4827009.6     -4827009.6      967.00107     -4826042.6     -83.474163     -82.178436     -79.332793      0.91299805     0.44464713     0.68592987     13259.391    
   3115000   324.75703      1.5575         0.0084489644   0.0083228177   0.0080353695  -81.609184      1526.6607      1526.6607      1526.6607      3.558177e+09   0.13156293    -4824684.8     -4824684.8      967.07098     -4823717.7     -83.384795     -82.139824     -79.302931      0.88876873     0.42818744     0.65662349     13311.914    
   3116000   324.72432      1.558          0.0084407377   0.0083164582   0.008029531   -81.541992      1526.9591      1526.9591      1526.9591      3.5602643e+09  0.1314858     -4822360.7     -4822360.7      966.97357     -4821393.7     -83.303604     -82.077061     -79.24531       0.86802776     0.42617587     0.62473663     13336.679    
   3117000   324.66084      1.5585         0.0084320054   0.0083103278   0.0080205217  -81.463459      1527.2576      1527.2576      1527.2576      3.5623524e+09  0.13140872    -4820037.7     -4820037.7      966.78453     -4819070.9     -83.217424     -82.016559     -79.156395      0.86549346     0.43238754     0.59964537     13417.464    
   3118000   324.60178      1.559          0.0084233239   0.0083058937   0.0080095964  -81.38437       1527.5561      1527.5561      1527.5561      3.5644414e+09  0.13133171    -4817716.1     -4817716.1      966.60867     -4816749.5     -83.131744     -81.972797     -79.04857       0.88590463     0.42650359     0.59049289     13364.651    
   3119000   324.56006      1.5595         0.0084155675   0.0083021509   0.0080011124  -81.318631      1527.8545      1527.8545      1527.8545      3.5665312e+09  0.13125476    -4815395.6     -4815395.6      966.48444     -4814429.1     -83.055193     -81.935859     -78.964839      0.90967244     0.4066785      0.60588226     13329.202    
   3120000   324.54064      1.56           0.0084095372   0.0082969344   0.0079967189  -81.267178      1528.153       1528.153       1528.153       3.5686217e+09  0.13117787    -4813075.8     -4813075.8      966.4266      -4812109.4     -82.995679     -81.884376     -78.92148       0.92671265     0.38801953     0.63728552     13266.739    
   3121000   324.55211      1.5605         0.0084050498   0.0082881826   0.007993643   -81.213506      1528.4515      1528.4515      1528.4515      3.5707131e+09  0.13110104    -4810756.7     -4810756.7      966.46076     -4809790.2     -82.951392     -81.798003     -78.891122      0.93313327     0.38011767     0.67208963     13153.705    
   3122000   324.58945      1.561          0.008401136    0.0082783163   0.0079896896  -81.155167      1528.7499      1528.7499      1528.7499      3.5728053e+09  0.13102426    -4808438.3     -4808438.3      966.57196     -4807471.7     -82.912765     -81.700629     -78.852105      0.91857742     0.38989845     0.69760281     13081.99     
   3123000   324.62612      1.5615         0.0083959117   0.0082700534   0.0079830424  -81.08893       1529.0484      1529.0484      1529.0484      3.5748984e+09  0.13094755    -4806121       -4806121        966.68116     -4805154.3     -82.861206     -81.619081     -78.786503      0.8870522      0.4198847      0.69868581     13164.304    
   3124000   324.63654      1.562          0.0083872466   0.0082629944   0.007973542   -81.005948      1529.3469      1529.3469      1529.3469      3.5769922e+09  0.1308709     -4803804.9     -4803804.9      966.71219     -4802838.2     -82.775688     -81.549415     -78.692741      0.86721981     0.46481949     0.66548714     13047.377    
   3125000   324.62794      1.5625         0.0083750818   0.0082555328   0.0079646661  -80.912183      1529.6453      1529.6453      1529.6453      3.5790869e+09  0.13079431    -4801490.6     -4801490.6      966.68657     -4800523.9     -82.65563      -81.475774     -78.605143      0.88046097     0.50420708     0.62093679     13218.369    
   3126000   324.62907      1.563          0.0083641339   0.0082476515   0.0079586628  -80.83049       1529.9438      1529.9438      1529.9438      3.5811824e+09  0.13071777    -4799178.1     -4799178.1      966.68994     -4798211.4     -82.547584     -81.397992     -78.545895      0.90328268     0.51321244     0.58787879     13634.294    
   3127000   324.64135      1.5635         0.0083600913   0.0082423325   0.0079533776  -80.782306      1530.2423      1530.2423      1530.2423      3.5832787e+09  0.1306413     -4796866.8     -4796866.8      966.72652     -4795900       -82.507686     -81.345497     -78.493734      0.90591889     0.4800084      0.56912772     13954.305    
   3128000   324.64484      1.564          0.0083622882   0.0082395874   0.0079468593  -80.759059      1530.5407      1530.5407      1530.5407      3.5853758e+09  0.13056489    -4794555.5     -4794555.5      966.73689     -4793588.8     -82.529367     -81.318405     -78.429404      0.8921399      0.42598756     0.56991911     13967.646    
   3129000   324.63424      1.5645         0.0083651323   0.0082371277   0.007939839   -80.737228      1530.8392      1530.8392      1530.8392      3.5874737e+09  0.13048853    -4792243.7     -4792243.7      966.70533     -4791277       -82.557437     -81.294129     -78.360118      0.88150854     0.37529536     0.59659743     14109.499    
   3130000   324.63476      1.565          0.008364002    0.0082328544   0.0079324586  -80.695173      1531.1377      1531.1377      1531.1377      3.5895725e+09  0.13041224    -4789931.9     -4789931.9      966.70687     -4788965.2     -82.546282     -81.251956     -78.28728       0.87905109     0.33688621     0.63835613     13806.785    
   3131000   324.66049      1.5655         0.0083582341   0.0082269749   0.0079262621  -80.63647       1531.4361      1531.4361      1531.4361      3.5916721e+09  0.130336      -4787620.8     -4787620.8      966.78349     -4786654       -82.489357     -81.19393      -78.226124      0.87942397     0.31862959     0.67376226     13698.113    
   3132000   324.68757      1.566          0.008350006    0.008218846    0.0079229678  -80.571823      1531.7346      1531.7346      1531.7346      3.5937725e+09  0.13025983    -4785310.5     -4785310.5      966.86413     -4784343.7     -82.408152     -81.113703     -78.193613      0.88008068     0.3142909      0.69010162     13297.224    
   3133000   324.69514      1.5665         0.0083406517   0.0082083478   0.0079203133  -80.49778       1532.0331      1532.0331      1532.0331      3.5958737e+09  0.13018371    -4783001.3     -4783001.3      966.88668     -4782034.4     -82.315832     -81.010094     -78.167415      0.87712689     0.30672467     0.68772901     13889.677    
   3134000   324.68932      1.567          0.008331409    0.0081982747   0.0079152658  -80.417631      1532.3315      1532.3315      1532.3315      3.5979757e+09  0.13010766    -4780693.7     -4780693.7      966.86934     -4779726.8     -82.224613     -80.910681     -78.117599      0.87321571     0.29188333     0.67462713     14049.811    
   3135000   324.68079      1.5675         0.0083233281   0.0081915376   0.0079091278  -80.348692      1532.63        1532.63        1532.63        3.6000786e+09  0.13003166    -4778387.5     -4778387.5      966.84396     -4777420.7     -82.144862     -80.844191     -78.057022      0.87590005     0.2763311      0.65890573     13914.804    
   3136000   324.67468      1.568          0.0083180245   0.0081869455   0.0079045616  -80.301115      1532.9285      1532.9285      1532.9285      3.6021822e+09  0.12995572    -4776082.2     -4776082.2      966.82574     -4775115.4     -82.092519     -80.79887      -78.011958      0.88600155     0.2806798      0.64827932     13681.458    
   3137000   324.67547      1.5685         0.0083167584   0.0081821035   0.0079000114  -80.266052      1533.2269      1533.2269      1533.2269      3.6042867e+09  0.12987984    -4773777.1     -4773777.1      966.8281      -4772810.3     -82.080024     -80.751083     -77.96705       0.91341669     0.30645191     0.64587556     13900.288    
   3138000   324.67782      1.569          0.0083182936   0.0081769047   0.0078929188  -80.230668      1533.5254      1533.5254      1533.5254      3.606392e+09   0.12980402    -4771472.1     -4771472.1      966.83509     -4770505.3     -82.095175     -80.699775     -77.897052      0.95461532     0.32720787     0.64718567     13944.68     
   3139000   324.67184      1.5695         0.0083185918   0.0081735495   0.0078841902  -80.191896      1533.8239      1533.8239      1533.8239      3.6084981e+09  0.12972826    -4769167.1     -4769167.1      966.81731     -4768200.3     -82.098118     -80.666662     -77.810907      0.97858514     0.33747019     0.65132306     13770.569    
   3140000   324.65499      1.57           0.0083139922   0.0081712447   0.0078767071  -80.144565      1534.1223      1534.1223      1534.1223      3.6106051e+09  0.12965256    -4766862.4     -4766862.4      966.76711     -4765895.6     -82.052724     -80.643915     -77.737055      0.9682288      0.34053734     0.64907207     13789.056    
   3141000   324.63594      1.5705         0.0083030672   0.0081666685   0.0078725434  -80.079872      1534.4208      1534.4208      1534.4208      3.6127129e+09  0.12957692    -4764558.5     -4764558.5      966.7104      -4763591.8     -81.944903     -80.598751     -77.695962      0.93631165     0.34336772     0.62968264     13786.865    
   3142000   324.62394      1.571          0.0082888978   0.0081602871   0.0078724089  -80.011822      1534.7193      1534.7193      1534.7193      3.6148214e+09  0.12950133    -4762255.6     -4762255.6      966.67467     -4761289       -81.805061     -80.535772     -77.694635      0.89622133     0.35909092     0.60199971     13747.716    
   3143000   324.61657      1.5715         0.008275668    0.0081531197   0.0078745968  -79.951919      1535.0178      1535.0178      1535.0178      3.6169309e+09  0.12942581    -4759953.8     -4759953.8      966.6527      -4758987.1     -81.674493     -80.465035     -77.716228      0.86206882     0.38923871     0.58046823     13922.651    
   3144000   324.60643      1.572          0.0082667137   0.0081458471   0.0078745492  -79.89838       1535.3162      1535.3162      1535.3162      3.6190411e+09  0.12935034    -4757652.6     -4757652.6      966.62253     -4756686       -81.586121     -80.39326      -77.715759      0.84458659     0.42810115     0.57161665     13824.251    
   3145000   324.60309      1.5725         0.0082604461   0.0081387466   0.0078695574  -79.837981      1535.6147      1535.6147      1535.6147      3.6211521e+09  0.12927493    -4755352.3     -4755352.3      966.61258     -4754385.6     -81.524265     -80.323184     -77.666493      0.8503379      0.46333847     0.57778886     13643.698    
   3146000   324.62048      1.573          0.0082544343   0.0081327022   0.0078611076  -79.770521      1535.9132      1535.9132      1535.9132      3.623264e+09   0.12919958    -4753053       -4753053        9