LAMMPS (23 Jun 2022 - Update 1)
OMP_NUM_THREADS environment is not set. Defaulting to 1 thread. (src/comm.cpp:98)
  using 1 OpenMP thread(s) per MPI task
###

# Read restart info
read_restart ${read_res}
read_restart ./trial7/9010/equpmf71.res
Reading restart file ...
  restart file = 23 Jun 2022, LAMMPS = 23 Jun 2022
  restoring atom style atomic from restart
  orthogonal box = (1733.5559 1733.5559 1733.5559) to (2266.4441 2266.4441 2266.4441)
  1 by 2 by 2 MPI processor grid
  restoring pair style table from restart
  1000 atoms
  read_restart CPU = 0.037 seconds

# Settings
pair_style table/pgn spline 10941
pair_coeff 1 1 N20e.txt DE_GNP 308 72.9   # 1.35 * r
pair_coeff 2 2 N100e.txt DE_GNP 473.9 111.78
WARNING: 20 of 10941 force values in table DE_GNP are inconsistent with -dE/dr.
WARNING:  Should only be flagged at inflection points (src/pair_table_pgn.cpp:478)
pair_coeff 1 2 mixed_potentiale.txt DE_GNP 391.2 92.95
WARNING: 1564 of 10941 force values in table DE_GNP are inconsistent with -dE/dr.
WARNING:  Should only be flagged at inflection points (src/pair_table_pgn.cpp:478)

# Neighbor list
neighbor 2.0 bin
neigh_modify delay 0 every 1 check no once yes

# Temperature
variable T equal ${Temp}
variable T equal 300

# Deformation
reset_timestep 0
variable tmp equal "lx"
variable L0 equal ${tmp}
variable L0 equal 532.888237022133
variable strain equal "(lx - v_L0)/v_L0"
variable stp equal "step"
variable tmpe equal "temp"
variable p1 equal "v_strain"
variable p2 equal "-pxx*1.01325/10000"
variable p3 equal "-pyy*1.01325/10000"
variable p4 equal "-pzz*1.01325/10000"
variable p5 equal "lx"
variable p6 equal "ly"
variable p7 equal "lz"
variable p8 equal "press"
variable p9 equal "epair"
variable p10 equal "etotal"

# Thermo
thermo_style custom step temp v_p1 v_p2 v_p3 v_p4 press lx ly lz vol density epair pe ke etotal pxx pyy pzz pxy pxz pyz spcpu
thermo ${ts_save}
thermo 1000

# Dump
# dump 1 all custom 2000 ./${N20}${N100}/tensile/trajectory/trajectory_${usic}_${trial}_*.tensile.custom id type x y z ix iy iz
# dump_modify 1 sort id
dump 2 all cfg 50000 ./trial${trial}/${N20}${N100}/tensile/trajectory/dumpten.tens_${usic}_${trial}_*.cfg mass type xs ys zs fx fy fz
dump 2 all cfg 50000 ./trial7/${N20}${N100}/tensile/trajectory/dumpten.tens_${usic}_${trial}_*.cfg mass type xs ys zs fx fy fz
dump 2 all cfg 50000 ./trial7/90${N100}/tensile/trajectory/dumpten.tens_${usic}_${trial}_*.cfg mass type xs ys zs fx fy fz
dump 2 all cfg 50000 ./trial7/9010/tensile/trajectory/dumpten.tens_${usic}_${trial}_*.cfg mass type xs ys zs fx fy fz
dump 2 all cfg 50000 ./trial7/9010/tensile/trajectory/dumpten.tens_1_${trial}_*.cfg mass type xs ys zs fx fy fz
dump 2 all cfg 50000 ./trial7/9010/tensile/trajectory/dumpten.tens_1_7_*.cfg mass type xs ys zs fx fy fz
dump_modify 2 element N20 N100

fix 1 all nvt temp ${T} ${T} 100
fix 1 all nvt temp 300 ${T} 100
fix 1 all nvt temp 300 300 100
fix 2 all deform 1 x erate ${strain_rate} y erate ${strain_rate} z erate ${strain_rate} units box
fix 2 all deform 1 x erate 5e-6 y erate ${strain_rate} z erate ${strain_rate} units box
fix 2 all deform 1 x erate 5e-6 y erate 5e-6 z erate ${strain_rate} units box
fix 2 all deform 1 x erate 5e-6 y erate 5e-6 z erate 5e-6 units box
fix             def1 all print ${ts_save} "${p1} ${p2} ${p3} ${p4}" file ./tensile/${trial}/tensile${N20}${N100}_${usic}_${trial}.txt screen no
fix             def1 all print 1000 "${p1} ${p2} ${p3} ${p4}" file ./tensile/${trial}/tensile${N20}${N100}_${usic}_${trial}.txt screen no
fix             def1 all print 1000 "${p1} ${p2} ${p3} ${p4}" file ./tensile/7/tensile${N20}${N100}_${usic}_${trial}.txt screen no
fix             def1 all print 1000 "${p1} ${p2} ${p3} ${p4}" file ./tensile/7/tensile90${N100}_${usic}_${trial}.txt screen no
fix             def1 all print 1000 "${p1} ${p2} ${p3} ${p4}" file ./tensile/7/tensile9010_${usic}_${trial}.txt screen no
fix             def1 all print 1000 "${p1} ${p2} ${p3} ${p4}" file ./tensile/7/tensile9010_1_${trial}.txt screen no
fix             def1 all print 1000 "${p1} ${p2} ${p3} ${p4}" file ./tensile/7/tensile9010_1_7.txt screen no

timestep       		${ts}
timestep       		0.1
run				${steps_tensile}
run				6000000
Generated 0 of 1 mixed pair_coeff terms from geometric mixing rule
Unused restart file global fix info:
  fix style: npt, fix ID: 5
Neighbor list info ...
  update every 1 steps, delay 0 steps, check no
  max neighbors/atom: 2000, page size: 100000
  master list distance cutoff = 113.78
  ghost atom cutoff = 113.78
  binsize = 56.89, bins = 10 10 10
  1 neighbor lists, perpetual/occasional/extra = 1 0 0
  (1) pair table/pgn, perpetual
      attributes: half, newton on
      pair build: half/bin/atomonly/newton
      stencil: half/bin/3d
      bin: standard
Per MPI rank memory allocation (min/avg/max) = 3.862 | 3.863 | 3.863 Mbytes
   Step          Temp           v_p1           v_p2           v_p3           v_p4          Press            Lx             Ly             Lz           Volume        Density         E_pair         PotEng         KinEng         TotEng          Pxx            Pyy            Pzz            Pxy            Pxz            Pyz           S/CPU     
         0   296.38009      6.400226e-16   0.0067447912   0.01484707     0.0052452557  -88.287251      532.88824      532.88824      532.88824      1.5132421e+08  2.6541439     -8641161.7     -8641161.7      882.56929     -8640279.2     -66.565914     -146.52919     -51.766649     -3.9875661      40.657012     -7.7962605      0            
      1000   318.29087      0.0005         0.019592281    0.027642061    0.018277652   -215.5177       533.15468      533.15468      533.15468      1.515513e+08   2.6501666     -8640701.4     -8640701.4      947.81585     -8639753.5     -193.36078     -272.80593     -180.3864      -2.0729236      43.62802      -7.4911461      12244.603    
      2000   347.40075      0.001          0.029556991    0.037779871    0.028504866   -315.29477      533.42113      533.42113      533.42113      1.5177863e+08  2.6461973     -8639992.6     -8639992.6      1034.5001     -8638958.1     -291.70482     -372.85834     -281.32115     -0.92284381     40.336169     -10.096559      12355.525    
      3000   386.9846       0.0015         0.036823972    0.045001716    0.0355843     -386.24883      533.68757      533.68757      533.68757      1.5200619e+08  2.642236      -8639101.5     -8639101.5      1152.3741     -8637949.1     -363.42435     -444.1324      -351.18973      0.46774929     33.289282     -12.057997      12533.613    
      4000   414.08348      0.002          0.043351319    0.051389415    0.041805427   -449.20195      533.95401      533.95401      533.95401      1.5223397e+08  2.6382825     -8638048.2     -8638048.2      1233.0699     -8636815.1     -427.84425     -507.17409     -412.58749      2.1899548      28.689765     -12.137059      12448.202    
      5000   426.37642      0.0025         0.050332738    0.058707081    0.049053647   -520.08706      534.22046      534.22046      534.22046      1.5246198e+08  2.6343369     -8636801.2     -8636801.2      1269.6762     -8635531.5     -496.7455      -579.39384     -484.12185      2.9762762      28.002604     -11.892886      12600.906    
      6000   427.27456      0.003          0.058384678    0.067133669    0.057646941   -602.56695      534.4869       534.4869       534.4869       1.5269021e+08  2.6303992     -8635314.6     -8635314.6      1272.3507     -8634042.3     -576.21197     -662.5578      -568.93107      4.4916069      28.609939     -13.763642      12507.635    
      7000   421.26095      0.0035         0.067385121    0.075740018    0.066891341   -690.9005       534.75335      534.75335      534.75335      1.5291868e+08  2.6264693     -8633546.8     -8633546.8      1254.4432     -8632292.4     -665.03944     -747.49586     -660.1662       8.0257486      28.934624     -16.777355      12390.441    
      8000   412.4007       0.004          0.076466957    0.083900546    0.075790648   -776.89991      535.01979      535.01979      535.01979      1.5314737e+08  2.6225472     -8631481.7     -8631481.7      1228.0589     -8630253.6     -754.67019     -828.03401     -747.99554      10.914172      28.255712     -16.932023      12458.891    
      9000   403.48594      0.0045         0.08523514     0.091629104    0.083835807   -857.63649      535.28623      535.28623      535.28623      1.5337629e+08  2.618633      -8629123.9     -8629123.9      1201.5122     -8627922.3     -841.20543     -904.30894     -827.39509      10.566896      27.715631     -14.421621      12183.687    
     10000   395.16083      0.005          0.093542456    0.099352082    0.09125639    -934.78388      535.55268      535.55268      535.55268      1.5360544e+08  2.6147265     -8626485.9     -8626485.9      1176.7215     -8625309.1     -923.19227     -980.52882     -900.63055      7.7886269      27.848019     -11.763869      12290.53     
     11000   387.55122      0.0055         0.10097326     0.10703091     0.098418937   -1008.0536      535.81912      535.81912      535.81912      1.5383481e+08  2.6108278     -8623584.1     -8623584.1      1154.0613     -8622430       -996.5286      -1056.313      -971.31939      6.0906857      26.909868     -10.413033      12250.692    
     12000   381.04186      0.006          0.10770577     0.11452779     0.10581358    -1079.1912      536.08557      536.08557      536.08557      1.5406442e+08  2.6069369     -8620430.6     -8620430.6      1134.6776     -8619295.9     -1062.9733     -1130.3014     -1044.2988      6.5943236      23.964735     -10.633854      12369.585    
     13000   375.60427      0.0065         0.1144253      0.12175733     0.11350272    -1150.3754      536.35201      536.35201      536.35201      1.5429425e+08  2.6030537     -8617027       -8617027        1118.4854     -8615908.6     -1129.2899     -1201.6514     -1120.1848      7.6751764      21.033054     -13.152729      12698.431    
     14000   371.02225      0.007          0.12155003     0.12873261     0.12100116    -1221.4288      536.61845      536.61845      536.61845      1.5452431e+08  2.5991781     -8613374.9     -8613374.9      1104.8409     -8612270       -1199.6056     -1270.4921     -1194.1886      9.1569257      20.476708     -16.177999      12842.776    
     15000   367.21648      0.0075         0.12891231     0.13526835     0.12803336    -1290.2838      536.8849       536.8849       536.8849       1.547546e+08   2.5953103     -8609489.3     -8609489.3      1093.508      -8608395.8     -1272.2656     -1334.9948     -1263.591       12.307169      21.422302     -17.944573      12848.537    
     16000   364.49256      0.008          0.13599108     0.14146171     0.13460292    -1355.5579      537.15134      537.15134      537.15134      1.5498512e+08  2.5914502     -8605379.5     -8605379.5      1085.3966     -8604294.1     -1342.1276     -1396.1186     -1328.4276      15.662067      22.488333     -17.131406      12539.029    
     17000   362.80219      0.0085         0.14255514     0.14772586     0.141013      -1418.847       537.41779      537.41779      537.41779      1.5521586e+08  2.5875977     -8601042.4     -8601042.4      1080.363      -8599962.1     -1406.9099     -1457.9409     -1391.6901      17.163212      23.212522     -15.888025      12245.614    
     18000   361.33003      0.009          0.14881776     0.15411475     0.14759275    -1482.1129      537.68423      537.68423      537.68423      1.5544684e+08  2.5837528     -8596472.8     -8596472.8      1075.9791     -8595396.9     -1468.7171     -1520.9943     -1456.6272      17.014916      21.421636     -15.428869      12189.143    
     19000   360.05788      0.0095         0.15502623     0.16024351     0.15372832    -1542.8836      537.95068      537.95068      537.95068      1.5567805e+08  2.5799155     -8591677.9     -8591677.9      1072.1909     -8590605.7     -1529.9899     -1581.4805     -1517.1805      16.983233      16.952169     -15.862609      12174.417    
     20000   360.02738      0.01           0.16070827     0.1660818      0.15918713    -1598.7407      538.21712      538.21712      538.21712      1.5590948e+08  2.5760859     -8586686.4     -8586686.4      1072.1001     -8585614.3     -1586.0673     -1639.0999     -1571.0548      17.441648      13.879074     -16.177704      12124.997    
     21000   361.15601      0.0105         0.1660999      0.17192466     0.1649793     -1654.7541      538.48356      538.48356      538.48356      1.5614114e+08  2.5722638     -8581521.9     -8581521.9      1075.4609     -8580446.5     -1639.2786     -1696.7645     -1628.2191      16.137838      14.7675       -15.8166        12222.849    
     22000   362.0971       0.011          0.17192932     0.17741973     0.17106188    -1712.0189      538.75001      538.75001      538.75001      1.5637304e+08  2.5684493     -8576173.6     -8576173.6      1078.2633     -8575095.3     -1696.8105     -1750.9966     -1688.2495      13.830045      17.386637     -14.433939      12344.355    
     23000   362.82266      0.0115         0.17779926     0.18242765     0.17681575    -1766.733       539.01645      539.01645      539.01645      1.5660516e+08  2.5646423     -8570619.2     -8570619.2      1080.4239     -8569538.8     -1754.7423     -1800.4209     -1745.0358      14.784494      19.097644     -12.965944      12238.293    
     24000   363.92905      0.012          0.18316469     0.18744483     0.18202045    -1818.0113      539.2829       539.2829       539.2829       1.5683751e+08  2.5608428     -8564876.1     -8564876.1      1083.7186     -8563792.3     -1807.6949     -1849.9366     -1796.4022      19.949661      18.607876     -12.009055      12213.971    
     25000   365.3834       0.0125         0.18819371     0.1927864      0.18709421    -1868.8192      539.54934      539.54934      539.54934      1.5707009e+08  2.5570508     -8558962.2     -8558962.2      1088.0494     -8557874.1     -1857.3275     -1902.6538     -1846.4762      25.572745      15.508282     -12.88874       12185.35     
     26000   366.78375      0.013          0.19327447     0.19829502     0.19223708    -1920.5743      539.81578      539.81578      539.81578      1.573029e+08   2.5532664     -8552882.4     -8552882.4      1092.2194     -8551790.2     -1907.4707     -1957.0197     -1897.2325      29.02119       12.127753     -14.26764       12174.018    
     27000   368.50905      0.0135         0.19820648     0.20319685     0.19691886    -1968.327       540.08223      540.08223      540.08223      1.5753594e+08  2.5494893     -8546640.3     -8546640.3      1097.357      -8545543       -1956.1458     -2005.397      -1943.4381      28.669616      9.869322      -13.226445      12170.204    
     28000   370.94962      0.014          0.20296132     0.20758678     0.2012464     -2012.6474      540.34867      540.34867      540.34867      1.5776922e+08  2.5457198     -8540240.9     -8540240.9      1104.6246     -8539136.3     -2003.0725     -2048.7222     -1986.1476      26.066319      8.0207411     -12.441142      12175.86     
     29000   373.31277      0.0145         0.20760543     0.21194434     0.20572102    -2056.981       540.61512      540.61512      540.61512      1.5800272e+08  2.5419576     -8533688.7     -8533688.7      1111.6617     -8532577       -2048.9063     -2091.728      -2030.3086      22.745225      9.453247      -13.758449      12050.516    
     30000   375.08236      0.015          0.21191215     0.21618295     0.21019781    -2099.8204      540.88156      540.88156      540.88156      1.5823645e+08  2.5382029     -8526983.6     -8526983.6      1116.9312     -8525866.7     -2091.4103     -2133.5599     -2074.4911      20.652487      11.86403      -15.052824      12251.9      
     31000   376.96164      0.0155         0.2159885      0.22025173     0.21454474    -2140.9161      541.148        541.148        541.148        1.5847041e+08  2.5344555     -8520132.6     -8520132.6      1122.5274     -8519010.1     -2131.6408     -2173.7156     -2117.3919      20.973763      12.383474     -14.138037      12254.513    
     32000   379.39683      0.016          0.22045736     0.22450332     0.21915573    -2184.7731      541.41445      541.41445      541.41445      1.587046e+08   2.5307156     -8513135.2     -8513135.2      1129.779      -8512005.4     -2175.745      -2215.6755     -2162.8989      24.325725      12.227472     -12.038365      12155.72     
     33000   381.82865      0.0165         0.22517247     0.22885092     0.22378665    -2229.8217      541.68089      541.68089      541.68089      1.5893903e+08  2.5269829     -8505991.6     -8505991.6      1137.0205     -8504854.5     -2222.2795     -2258.583      -2208.6025      28.054427      12.59061      -9.5581234      12223.315    
     34000   384.19111      0.017          0.22906825     0.23293328     0.2279431     -2269.7413      541.94734      541.94734      541.94734      1.5917368e+08  2.5232577     -8498715       -8498715        1144.0555     -8497571       -2260.7278     -2298.8727     -2249.6235      29.246789      12.280309     -8.6232422      12230.623    
     35000   386.42146      0.0175         0.23232676     0.2367819      0.23145062    -2304.6609      542.21378      542.21378      542.21378      1.5940857e+08  2.5195397     -8491313.4     -8491313.4      1150.6971     -8490162.7     -2292.8869     -2336.8557     -2284.24        27.539287      9.4354407     -11.269811      12225.756    
     36000   388.61018      0.018          0.23559941     0.24013071     0.234578      -2336.732       542.48023      542.48023      542.48023      1.5964368e+08  2.515829      -8483798.6     -8483798.6      1157.2148     -8482641.4     -2325.1854     -2369.9058     -2315.1049      24.87565       5.1902985     -13.241549      12103.68     
     37000   390.79319      0.0185         0.23909426     0.24287805     0.23778896    -2367.8305      542.74667      542.74667      542.74667      1.5987903e+08  2.5121257     -8476170.6     -8476170.6      1163.7154     -8475006.8     -2359.6768     -2397.02       -2346.7945      24.57341       2.1315564     -12.170072      12217.499    
     38000   392.75846      0.019          0.24284372     0.24592181     0.24129474    -2401.7116      543.01311      543.01311      543.01311      1.6011461e+08  2.5084295     -8468418.3     -8468418.3      1169.5676     -8467248.7     -2396.6812     -2427.0596     -2381.394       26.395243      1.9403718     -12.061998      12163.083    
     39000   394.31938      0.0195         0.2463781      0.24953669     0.24504286    -2437.5611      543.27956      543.27956      543.27956      1.6035042e+08  2.5047407     -8460542.8     -8460542.8      1174.2158     -8459368.6     -2431.5628     -2462.7356     -2418.385       28.163265      1.6941746     -13.992056      12275.831    
     40000   395.5997       0.02           0.2496327      0.25323456     0.24822465    -2470.9003      543.546        543.546        543.546        1.6058646e+08  2.501059      -8452555       -8452555        1178.0284     -8451376.9     -2463.6832     -2499.2308     -2449.7868      30.119726      2.5133219     -13.642566      12263.619    
     41000   397.29883      0.0205         0.25264503     0.25639811     0.25084634    -2499.842       543.81245      543.81245      543.81245      1.6082273e+08  2.4973846     -8444471.7     -8444471.7      1183.0881     -8443288.6     -2493.4126     -2530.4526     -2475.6609      31.244306      4.1812743     -11.763658      12301.255    
     42000   399.0666       0.021          0.25534401     0.25931221     0.25377967    -2527.9575      544.07889      544.07889      544.07889      1.6105923e+08  2.4937174     -8436298       -8436298        1188.3522     -8435109.6     -2520.0494     -2559.2126     -2504.6106      31.406565      5.1780138     -10.054163      12204.198    
     43000   400.31327      0.0215         0.2579186      0.26195202     0.25678977    -2555.0141      544.34533      544.34533      544.34533      1.6129597e+08  2.4900573     -8428022.6     -8428022.6      1192.0646     -8426830.6     -2545.4587     -2585.2654     -2534.318       30.540894      5.8294783     -7.9177298      12240.141    
     44000   401.45831      0.022          0.26032394     0.26400992     0.25949244    -2578.588       544.61178      544.61178      544.61178      1.6153294e+08  2.4864044     -8419645.7     -8419645.7      1195.4743     -8418450.2     -2569.1975     -2605.5753     -2560.9913      28.252669      4.69388       -7.3106902      12097.066    
     45000   402.8329       0.0225         0.26280104     0.26619827     0.26210832    -2602.5417      544.87822      544.87822      544.87822      1.6177014e+08  2.4827587     -8411180.2     -8411180.2      1199.5676     -8409980.6     -2593.6446     -2627.1726     -2586.808       26.56579       1.545809      -8.639048       12143.034    
     46000   403.97552      0.023          0.26572939     0.26902828     0.26484988    -2630.5043      545.14467      545.14467      545.14467      1.6200757e+08  2.47912       -8402619.2     -8402619.2      1202.9701     -8401416.2     -2622.5451     -2655.1027     -2613.865       27.154999     -0.095763977   -8.8351797      12260.789    
     47000   404.65137      0.0235         0.26895114     0.27190419     0.26773997    -2660.0717      545.41111      545.41111      545.41111      1.6224523e+08  2.4754885     -8393957.5     -8393957.5      1204.9827     -8392752.5     -2654.3414     -2683.4858     -2642.3881      30.324621      1.8912649     -6.7301615      12256.259    
     48000   405.73474      0.024          0.27159144     0.27397774     0.27013625    -2683.4622      545.67755      545.67755      545.67755      1.6248313e+08  2.4718641     -8385215.6     -8385215.6      1208.2088     -8384007.4     -2680.3991     -2703.9501     -2666.0375      31.52291       2.6105568     -2.280945       12245.256    
     49000   407.9171       0.0245         0.27364191     0.27577426     0.27193535    -2702.0364      545.944        545.944        545.944        1.6272126e+08  2.4682467     -8376403.1     -8376403.1      1214.7075     -8375188.4     -2700.6356     -2721.6803     -2683.7933      29.672903     -1.0136852     -0.083147898    12205.367    
     50000   409.9984       0.025          0.27594231     0.27793916     0.27401081    -2723.5538      546.21044      546.21044      546.21044      1.6295962e+08  2.4646364     -8367517       -8367517        1220.9052     -8366296.1     -2723.3389     -2743.0462     -2704.2764      28.668522     -4.8928906     -4.1189793      11822.753    
     51000   411.27127      0.0255         0.27785892     0.28001194     0.27637062    -2744.4411      546.47689      546.47689      546.47689      1.6319821e+08  2.4610332     -8358553.2     -8358553.2      1224.6956     -8357328.5     -2742.2543     -2763.503      -2727.5659      28.415499     -4.4680232     -10.152913      12157.796    
     52000   412.32963      0.026          0.27894264     0.28180206     0.27866665    -2761.4486      546.74333      546.74333      546.74333      1.6343704e+08  2.4574369     -8349514.4     -8349514.4      1227.8472     -8348286.6     -2752.9498     -2781.1701     -2750.226       28.371291      0.30190389    -12.224974      12197.995    
     53000   413.02658      0.0265         0.28017682     0.28358986     0.28070833    -2778.1068      547.00978      547.00978      547.00978      1.636761e+08   2.4538477     -8340412.7     -8340412.7      1229.9226     -8339182.8     -2765.1303     -2798.8143     -2770.3758      28.602637      3.268338      -10.237632      11728.374    
     54000   413.21715      0.027          0.28178015     0.28530122     0.2821166     -2793.6441      547.27622      547.27622      547.27622      1.6391539e+08  2.4502654     -8331251.2     -8331251.2      1230.4901     -8330020.7     -2780.9539     -2815.7041     -2784.2743      27.932926      0.39793598    -9.6431799      12205.378    
     55000   413.68744      0.0275         0.2832451      0.28662338     0.28322898    -2806.4724      547.54266      547.54266      547.54266      1.6415492e+08  2.4466901     -8322035       -8322035        1231.8906     -8320803.1     -2795.4118     -2828.7528     -2795.2527      27.521918     -2.2862469     -8.5954482      12186.515    
     56000   414.74276      0.028          0.28473986     0.28755875     0.28452675    -2818.7363      547.80911      547.80911      547.80911      1.6439467e+08  2.4431218     -8312776.7     -8312776.7      1235.0331     -8311541.7     -2810.1639     -2837.9843     -2808.0607      27.181395     -3.2430463     -3.8582266      12199.892    
     57000   415.33274      0.0285         0.28625438     0.28856958     0.2860307     -2831.9916      548.07555      548.07555      548.07555      1.6463467e+08  2.4395604     -8303472.6     -8303472.6      1236.79       -8302235.9     -2825.1111     -2847.9603     -2822.9035      27.737176     -3.4583328      0.56263376     12223.027    
     58000   415.65214      0.029          0.28758828     0.29000673     0.2876105     -2846.3048      548.342        548.342        548.342        1.6487489e+08  2.4360059     -8294107.9     -8294107.9      1237.7411     -8292870.1     -2838.2757     -2862.1439     -2838.4949      29.89261      -5.0446671      2.3472847      12158.31     
     59000   416.09882      0.0295         0.28903338     0.29202117     0.28946354    -2863.7819      548.60844      548.60844      548.60844      1.6511535e+08  2.4324583     -8284676.7     -8284676.7      1239.0712     -8283437.7     -2852.5377     -2882.0249     -2856.783       33.064152     -8.9799316      0.71869192     12215.377    
     60000   416.28408      0.03           0.29064043     0.29396507     0.29123233    -2881.2824      548.87488      548.87488      548.87488      1.6535604e+08  2.4289176     -8275173       -8275173        1239.6229     -8273933.3     -2868.398      -2901.2097     -2874.2396      34.244288     -8.7354894     -2.1731228      12108.635    
     61000   416.5883       0.0305         0.29174021     0.29509524     0.29236417    -2892.3419      549.14133      549.14133      549.14133      1.6559697e+08  2.4253838     -8265614.1     -8265614.1      1240.5288     -8264373.6     -2879.252      -2912.3636     -2885.4101      32.742849     -3.2668136     -5.0346318      12125.078    
     62000   417.98984      0.031          0.29212436     0.29525196     0.29303971    -2896.3436      549.40777      549.40777      549.40777      1.6583813e+08  2.4218568     -8256038.6     -8256038.6      1244.7024     -8254793.9     -2883.0433     -2913.9103     -2892.0771      29.740426     -0.2235815     -4.9350643      12047.208    
     63000   419.73271      0.0315         0.29273081     0.29532191     0.29361255    -2900.4532      549.67422      549.67422      549.67422      1.6607953e+08  2.4183367     -8246462.3     -8246462.3      1249.8923     -8245212.4     -2889.0285     -2914.6006     -2897.7306      25.134739     -2.1964357     -3.7882182      12204.602    
     64000   420.22717      0.032          0.29374823     0.29571104     0.29402338    -2906.432       549.94066      549.94066      549.94066      1.6632116e+08  2.4148233     -8236855.6     -8236855.6      1251.3648     -8235604.2     -2899.0697     -2918.4411     -2901.7852      21.269338     -6.7895468     -6.064209       12184.318    
     65000   420.29822      0.0325         0.29452816     0.29607023     0.29437193    -2911.326       550.2071       550.2071       550.2071       1.6656302e+08  2.4113168     -8227202.6     -8227202.6      1251.5763     -8225951       -2906.7669     -2921.986      -2905.225       20.781851     -11.464009     -6.245203       12123.859    
     66000   420.86023      0.033          0.29506501     0.29660845     0.29520431    -2917.601       550.47355      550.47355      550.47355      1.6680512e+08  2.4078171     -8217521.3     -8217521.3      1253.2499     -8216268       -2912.0653     -2927.2978     -2913.44        23.036544     -12.747405     -2.6521613      12187.718    
     67000   421.3263       0.0335         0.29540168     0.29767727     0.29620134    -2925.5047      550.73999      550.73999      550.73999      1.6704745e+08  2.4043241     -8207818.9     -8207818.9      1254.6378     -8206564.2     -2915.3879     -2937.8462     -2923.28        25.755677     -10.294987     -0.8920609      12224.085    
     68000   421.37332      0.034          0.2958518      0.29868631     0.29696731    -2932.8248      551.00644      551.00644      551.00644      1.6729001e+08  2.4008379     -8198083.1     -8198083.1      1254.7778     -8196828.3     -2919.8302     -2947.8046     -2930.8395      26.179712     -6.4190031     -0.63839946     12193.64     
     69000   421.42338      0.0345         0.29648868     0.29902394     0.29756685    -2938.003       551.27288      551.27288      551.27288      1.6753282e+08  2.3973584     -8188318.7     -8188318.7      1254.9269     -8187063.8     -2926.1158     -2951.1369     -2936.7565      25.198866     -5.1018384     -0.25372191     12218.013    
     70000   421.47724      0.035          0.29694643     0.29877858     0.29804339    -2940.2694      551.53933      551.53933      551.53933      1.6777585e+08  2.3938857     -8178538.5     -8178538.5      1255.0873     -8177283.5     -2930.6334     -2948.7153     -2941.4595      25.165239     -7.1527462     -0.37124147     12165.387    
     71000   421.33832      0.0355         0.2969267      0.29871037     0.29803926    -2939.9665      551.80577      551.80577      551.80577      1.6801912e+08  2.3904196     -8168748.2     -8168748.2      1254.6736     -8167493.5     -2930.4387     -2948.0421     -2941.4188      26.858289     -11.72506      -1.6286061      12263.91     
     72000   421.11897      0.036          0.29660194     0.2989673      0.29781468    -2939.0046      552.07221      552.07221      552.07221      1.6826263e+08  2.3869603     -8158944.7     -8158944.7      1254.0204     -8157690.6     -2927.2335     -2950.5778     -2939.2023      27.060297     -13.989619     -4.3201152      12195.589    
     73000   420.82693      0.0365         0.29642719     0.29896469     0.29797202    -2938.9387      552.33866      552.33866      552.33866      1.6850637e+08  2.3835076     -8149127.6     -8149127.6      1253.1507     -8147874.4     -2925.5089     -2950.5521     -2940.7552      23.752921     -12.713687     -6.2734916      12113.848    
     74000   421.27196      0.037          0.29637373     0.29823561     0.29820211    -2937.1213      552.6051       552.6051       552.6051       1.6875035e+08  2.3800616     -8139308.8     -8139308.8      1254.476      -8138054.4     -2924.9813     -2943.3567     -2943.026       19.801216     -9.9019974     -3.8318249      12056.232    
     75000   422.59955      0.0375         0.29635187     0.29764382     0.29848016    -2936.0172      552.87155      552.87155      552.87155      1.6899456e+08  2.3766222     -8129498.9     -8129498.9      1258.4293     -8128240.5     -2924.7655     -2937.5161     -2945.7701      18.091745     -9.0195173     -0.095943363    11917.652    
     76000   423.14909      0.038          0.29640626     0.29784823     0.29879726    -2937.9118      553.13799      553.13799      553.13799      1.69239e+08    2.3731894     -8119684.1     -8119684.1      1260.0657     -8118424.1     -2925.3024     -2939.5335     -2948.8997      18.146286     -9.353999       1.2712235      12041.979    
     77000   422.41652      0.0385         0.29656541     0.29831041     0.29871348    -2939.6802      553.40443      553.40443      553.40443      1.6948369e+08  2.3697632     -8109850.5     -8109850.5      1257.8843     -8108592.6     -2926.873      -2944.0948     -2948.0729      19.426069     -9.9340687     -0.46960857     12175.319    
     78000   421.72632      0.039          0.2963615      0.29842269     0.29792237    -2936.7763      553.67088      553.67088      553.67088      1.6972861e+08  2.3663437     -8100009.1     -8100009.1      1255.829      -8098753.2     -2924.8606     -2945.203      -2940.2652      20.391817     -11.012693     -2.6910207      12159.366    
     79000   421.95589      0.0395         0.29552146     0.29785114     0.29708435    -2929.3756      553.93732      553.93732      553.93732      1.6997376e+08  2.3629307     -8090174.4     -8090174.4      1256.5126     -8088917.9     -2916.57       -2939.5622     -2931.9945      20.398238     -13.070532     -3.6028748      12173.05     
     80000   422.21074      0.04           0.29467278     0.29698082     0.29672725    -2922.5458      554.20377      554.20377      554.20377      1.7021915e+08  2.3595242     -8080351.5     -8080351.5      1257.2715     -8079094.2     -2908.1942     -2930.9728     -2928.4703      18.838118     -14.955662     -2.4609233      12059.327    
     81000   421.69141      0.0405         0.29406295     0.29593472     0.29658392    -2916.6267      554.47021      554.47021      554.47021      1.7046478e+08  2.3561243     -8070544.6     -8070544.6      1255.725      -8069288.9     -2902.1757     -2920.6486     -2927.0557      18.460649     -14.834608     -1.2914743      12079.404    
     82000   420.94145      0.041          0.29344355     0.29484263     0.29592052    -2908.8139      554.73665      554.73665      554.73665      1.7071064e+08  2.352731      -8060759.6     -8060759.6      1253.4918     -8059506.1     -2896.0627     -2909.8705     -2920.5084      20.089659     -13.397506     -1.0783857      12119.734    
     83000   420.76401      0.0415         0.29282588     0.29393142     0.29497215    -2900.6644      555.0031       555.0031       555.0031       1.7095674e+08  2.3493441     -8050995.2     -8050995.2      1252.9634     -8049742.3     -2889.9668     -2900.8775     -2911.1488      22.722881     -11.748973     -0.65963001     12143.786    
     84000   420.57162      0.042          0.29263164     0.2935102      0.29440599    -2896.7771      555.26954      555.26954      555.26954      1.7120307e+08  2.3459638     -8041235.5     -8041235.5      1252.3905     -8039983.1     -2888.0498     -2896.7205     -2905.5612      23.259739     -10.852743     -0.11937508     12283.357    
     85000   420.01322      0.0425         0.29239179     0.29318379     0.29410238    -2893.9155      555.53599      555.53599      555.53599      1.7144965e+08  2.3425899     -8031471.2     -8031471.2      1250.7276     -8030220.5     -2885.6826     -2893.4991     -2902.5648      21.868612     -13.160482      0.02095888     12224.336    
     86000   419.6483       0.043          0.29144209     0.29257493     0.29380977    -2887.8256      555.80243      555.80243      555.80243      1.7169645e+08  2.3392225     -8021724       -8021724        1249.641      -8020474.4     -2876.3098     -2887.49       -2899.6769      19.088441     -15.51238      -1.4321437      12142.797    
     87000   419.61691      0.0435         0.28997554     0.29170548     0.29276389    -2876.7001      556.06888      556.06888      556.06888      1.719435e+08   2.3358616     -8012009.5     -8012009.5      1249.5475     -8010760       -2861.8361     -2878.9092     -2889.355       16.574852     -15.208511     -4.2802738      12201.32     
     88000   419.43632      0.044          0.28855755     0.29079684     0.29118901    -2863.8651      556.33532      556.33532      556.33532      1.7219078e+08  2.332507      -8002324.5     -8002324.5      1249.0097     -8001075.5     -2847.8416     -2869.9417     -2873.8121      15.489938     -13.90531      -6.143446       11983.292    
     89000   419.3157       0.0445         0.28761079     0.28957349     0.28976772    -2852.0503      556.60176      556.60176      556.60176      1.724383e+08   2.3291589     -7992664.1     -7992664.1      1248.6506     -7991415.5     -2838.4978     -2857.8681     -2859.785       16.454595     -11.884968     -4.9497253      12174.641    
     90000   419.3698       0.045          0.28738469     0.28813575     0.28883437    -2843.5063      556.86821      556.86821      556.86821      1.7268606e+08  2.3258172     -7983031.6     -7983031.6      1248.8117     -7981782.8     -2836.2664     -2843.6788     -2850.5736      17.639015     -12.353046     -2.4042626      12258.047    
     91000   419.027        0.0455         0.28716368     0.28682022     0.2882635     -2836.5734      557.13465      557.13465      557.13465      1.7293405e+08  2.3224819     -7973416.2     -7973416.2      1247.7908     -7972168.4     -2834.0852     -2830.6955     -2844.9395      18.675891     -14.755043     -0.58598655     12190.706    
     92000   418.45616      0.046          0.28597499     0.28562926     0.28713569    -2825.0348      557.4011       557.4011       557.4011       1.7318228e+08  2.319153      -7963827.8     -7963827.8      1246.091      -7962581.7     -2822.3537     -2818.9417     -2833.809       19.029987     -15.218828      0.97113098     12262.18     
     93000   417.87841      0.0465         0.28393131     0.28425772     0.28566158    -2808.9501      557.66754      557.66754      557.66754      1.7343075e+08  2.3158305     -7954286.8     -7954286.8      1244.3705     -7953042.4     -2802.1842     -2805.4056     -2819.2606      18.179676     -14.349465      1.6850674      12154.147    
     94000   416.91822      0.047          0.28207544     0.28282949     0.28430596    -2793.6866      557.93398      557.93398      557.93398      1.7367945e+08  2.3125142     -7944790.7     -7944790.7      1241.5113     -7943549.2     -2783.8681     -2791.31       -2805.8816      15.665956     -14.180678      1.1237648      12142.467    
     95000   415.89281      0.0475         0.28086623     0.28135075     0.28337019    -2781.7655      558.20043      558.20043      558.20043      1.739284e+08   2.3092043     -7935328.3     -7935328.3      1238.4578     -7934089.9     -2771.9341     -2776.716      -2796.6464      13.034119     -14.973613      0.072847504    12300.665    
     96000   414.80005      0.048          0.28012678     0.28003875     0.28285197    -2773.3119      558.46687      558.46687      558.46687      1.7417758e+08  2.3059007     -7925886.5     -7925886.5      1235.2037     -7924651.3     -2764.6363     -2763.7676     -2791.5319      10.720945     -16.519995     -4.29482        12194.807    
     97000   413.793        0.0485         0.27902409     0.27882373     0.28183579    -2762.3443      558.73332      558.73332      558.73332      1.74427e+08    2.3026035     -7916468.6     -7916468.6      1232.2049     -7915236.4     -2753.7536     -2751.7763     -2781.503       8.5304511     -17.524689     -9.059784       12192.554    
     98000   413.57735      0.049          0.27744377     0.27739528     0.27995715    -2746.266       558.99976      558.99976      558.99976      1.7467665e+08  2.2993125     -7907094.9     -7907094.9      1231.5627     -7905863.4     -2738.1571     -2737.6786     -2762.9622      7.850887      -16.689745     -10.128737      12206.549    
     99000   414.33731      0.0495         0.2755949      0.27591299     0.27765447    -2727.7321      559.2662       559.2662       559.2662       1.7492655e+08  2.2960277     -7897776.5     -7897776.5      1233.8258     -7896542.7     -2719.9101     -2723.0495     -2740.2366      10.842212     -15.776452     -7.2873078      12125.848    
    100000   415.19242      0.05           0.27403321     0.27470307     0.27605998    -2713.3687      559.53265      559.53265      559.53265      1.7517668e+08  2.2927493     -7888513.6     -7888513.6      1236.3721     -7887277.3     -2704.4975     -2711.1085     -2724.5002      14.438022     -15.367645     -4.2111536      11904.213    
    101000   414.68775      0.0505         0.27307535     0.27356813     0.27561697    -2705.0265      559.79909      559.79909      559.79909      1.7542705e+08  2.289477      -7879281.8     -7879281.8      1234.8693     -7878046.9     -2695.0441     -2699.9075     -2720.128       16.111344     -14.575455     -4.6220703      12136.08     
    102000   412.94499      0.051          0.2722411      0.27172987     0.27513755    -2694.6575      560.06554      560.06554      560.06554      1.7567766e+08  2.286211      -7870072.6     -7870072.6      1229.6797     -7868842.9     -2686.8108     -2681.7653     -2715.3965      14.087334     -13.836824     -5.8346179      12027.257    
    103000   411.21684      0.0515         0.27087044     0.2694534      0.27339282    -2676.9197      560.33198      560.33198      560.33198      1.7592851e+08  2.2829512     -7860902       -7860902        1224.5335     -7859677.5     -2673.2834     -2659.2983     -2698.1773      11.218041     -14.919718     -6.1106723      12174.782    
    104000   409.95454      0.052          0.26901727     0.26743955     0.2705484     -2654.8408      560.59843      560.59843      560.59843      1.761796e+08   2.2796976     -7851787       -7851787        1220.7746     -7850566.2     -2654.994      -2639.4231     -2670.1051      8.8217149     -16.770644     -6.3423123      12160.908    
    105000   409.20766      0.0525         0.26709026     0.26590197     0.26795893    -2634.9244      560.86487      560.86487      560.86487      1.7643093e+08  2.2764502     -7842730.1     -7842730.1      1218.5505     -7841511.6     -2635.9759     -2624.2484     -2644.549       8.3239208     -17.042798     -6.913567       12116.726    
    106000   408.27374      0.053          0.26553437     0.26506286     0.26672499    -2622.9862      561.13131      561.13131      561.13131      1.7668249e+08  2.2732089     -7833719.5     -7833719.5      1215.7695     -7832503.7     -2620.6205     -2615.9671     -2632.3709      8.9067648     -14.636455     -6.130342       12266.461    
    107000   406.79151      0.0535         0.26415887     0.26442361     0.26645535    -2615.4711      561.39776      561.39776      561.39776      1.769343e+08   2.2699738     -7824739.4     -7824739.4      1211.3556     -7823528.1     -2607.0453     -2609.6581     -2629.7098      8.9698023     -13.068094     -5.428004       12160.628    
    108000   405.72613      0.054          0.26258406     0.26324427     0.26558331    -2603.5419      561.6642       561.6642       561.6642       1.7718634e+08  2.2667448     -7815780.3     -7815780.3      1208.1831     -7814572.1     -2591.5032     -2598.019      -2621.1035      9.4391249     -12.170469     -7.0930568      12194.593    
    109000   405.45739      0.0545         0.2610715      0.26130184     0.26383612    -2586.428       561.93065      561.93065      561.93065      1.7743862e+08  2.2635219     -7806865       -7806865        1207.3829     -7805657.6     -2576.5753     -2578.8486     -2603.8601      9.0732352     -13.084852     -9.8292359      12144.295    
    110000   405.43113      0.055          0.259789       0.25860367     0.26176078    -2566.5053      562.19709      562.19709      562.19709      1.7769114e+08  2.2603052     -7798018.9     -7798018.9      1207.3047     -7796811.6     -2563.9181     -2552.2197     -2583.3781      8.5497312     -14.888375     -11.817328      12258.913    
    111000   404.79757      0.0555         0.25824302     0.25610005     0.25984818    -2546.8912      562.46353      562.46353      562.46353      1.779439e+08   2.2570945     -7789241.9     -7789241.9      1205.418      -7788036.5     -2548.6604     -2527.5109     -2564.5022      9.4436186     -13.988671     -13.885814      12213.375    
    112000   403.35872      0.056          0.25626554     0.25455344     0.25794005    -2529.0206      562.72998      562.72998      562.72998      1.781969e+08   2.2538899     -7780511.8     -7780511.8      1201.1334     -7779310.7     -2529.1442     -2512.2471     -2545.6703      9.5497114     -13.0708       -14.865328      12137.038    
    113000   401.87235      0.0565         0.25427503     0.25358932     0.25611339    -2513.2914      562.99642      562.99642      562.99642      1.7845015e+08  2.2506914     -7771818.8     -7771818.8      1196.7072     -7770622.1     -2509.4994     -2502.732      -2527.6426      6.8089215     -15.655695     -12.745072      12243.507    
    114000   400.9431       0.057          0.25273474     0.25232422     0.25469034    -2499.3809      563.26287      563.26287      563.26287      1.7870363e+08  2.2474989     -7763169       -7763169        1193.9401     -7761975       -2494.2979     -2490.2464     -2513.5982      4.7565112     -19.132028     -10.661685      12139.939    
    115000   400.2335       0.0575         0.25138094     0.25059842     0.2536751     -2485.9099      563.52931      563.52931      563.52931      1.7895735e+08  2.2443125     -7754571.1     -7754571.1      1191.827      -7753379.2     -2480.937      -2473.2141     -2503.5786      5.5219243     -21.661251     -10.291016      12248.984    
    116000   400.265        0.058          0.24973391     0.24827997     0.25233092    -2468.4425      563.79575      563.79575      563.79575      1.7921131e+08  2.2411321     -7746024.8     -7746024.8      1191.9208     -7744832.8     -2464.682      -2450.3328     -2490.3125      7.0322084     -20.798021     -9.2566988      12157.027    
    117000   400.53562      0.0585         0.24808775     0.24621709     0.25060087    -2450.5492      564.0622       564.0622       564.0622       1.7946551e+08  2.2379577     -7737526.8     -7737526.8      1192.7267     -7736334.1     -2448.4357     -2429.9738     -2473.2382      7.8830765     -16.938137     -7.706085       12312.448    
    118000   399.48345      0.059          0.24641053     0.24474887     0.24857242    -2433.5285      564.32864      564.32864      564.32864      1.7971995e+08  2.2347893     -7729085.4     -7729085.4      1189.5935     -7727895.8     -2431.8829     -2415.4836     -2453.219       7.3605126     -12.814153     -8.4008147      12217.852    
    119000   397.11626      0.0595         0.24469172     0.24347654     0.24640414    -2416.5553      564.59509      564.59509      564.59509      1.7997463e+08  2.2316268     -7720697.6     -7720697.6      1182.5444     -7719515.1     -2414.9196     -2402.9266     -2431.8198      6.5874626     -11.882545     -12.731745      12201.942    
    120000   394.5161       0.06           0.24287672     0.24195765     0.2443761     -2398.9159      564.86153      564.86153      564.86153      1.8022955e+08  2.2284704     -7712355       -7712355        1174.8016     -7711180.2     -2397.0069     -2387.9363     -2411.8046      6.732077      -12.518064     -17.661786      12204.457    
    121000   392.78225      0.0605         0.2409745      0.24029209     0.24274722    -2381.8203      565.12798      565.12798      565.12798      1.8048471e+08  2.2253198     -7704059.1     -7704059.1      1169.6385     -7702889.5     -2378.2334     -2371.4986     -2395.7288      5.9658037     -12.419967     -19.109095      12108.852    
    122000   392.0415       0.061          0.23909107     0.23870191     0.24136537    -2365.847       565.39442      565.39442      565.39442      1.8074011e+08  2.2221753     -7695809.5     -7695809.5      1167.4326     -7694642.1     -2359.6454     -2355.8046     -2382.091       4.0400392     -12.32441      -19.248989      12193.521    
    123000   391.57902      0.0615         0.2375707      0.23716        0.24022441    -2352.0194      565.66086      565.66086      565.66086      1.8099576e+08  2.2190366     -7687596.6     -7687596.6      1166.0555     -7686430.5     -2344.6405     -2340.5872     -2370.8306      2.8411075     -11.622668     -18.519087      12160.313    
    124000   390.55284      0.062          0.23617451     0.23547661     0.23908166    -2338.1291      565.92731      565.92731      565.92731      1.8125164e+08  2.2159038     -7679436.1     -7679436.1      1162.9997     -7678273.1     -2330.8612     -2323.9735     -2359.5525      3.1742194     -11.030979     -16.167707      12245.578    
    125000   389.34824      0.0625         0.23469864     0.23354089     0.2374173     -2321.4305      566.19375      566.19375      566.19375      1.8150777e+08  2.212777      -7671336.7     -7671336.7      1159.4126     -7670177.3     -2316.2955     -2304.8694     -2343.1266      3.6772208     -13.28977      -11.701673      12181.783    
    126000   388.50109      0.063          0.23315999     0.23155174     0.23539213    -2303.1626      566.4602       566.4602       566.4602       1.8176414e+08  2.209656      -7663288.3     -7663288.3      1156.8899     -7662131.4     -2301.1102     -2285.238      -2323.1397      3.6408806     -16.73874      -7.4137749      12172.986    
    127000   387.49278      0.0635         0.23171611     0.22976663     0.23357331    -2286.5566      566.72664      566.72664      566.72664      1.8202074e+08  2.2065409     -7655278.2     -7655278.2      1153.8873     -7654124.3     -2286.8602     -2267.6203     -2305.1894      5.2215275     -18.774817     -8.4778392      12014.737    
    128000   385.7779       0.064          0.23015423     0.22823232     0.23204385    -2271.3394      566.99308      566.99308      566.99308      1.8227759e+08  2.2034316     -7647313       -7647313        1148.7807     -7646164.3     -2271.4457     -2252.4779     -2290.0947      10.061455     -19.190031     -13.619535      12098.849    
    129000   383.69281      0.0645         0.22821947     0.22704471     0.23046186    -2255.8633      567.25953      567.25953      567.25953      1.8253468e+08  2.2003282     -7639395.8     -7639395.8      1142.5717     -7638253.3     -2252.3511     -2240.7571     -2274.4817      14.359743     -15.117684     -17.435413      12142.784    
    130000   382.10854      0.065          0.22607489     0.22596957     0.22878086    -2239.7412      567.52597      567.52597      567.52597      1.8279202e+08  2.1972306     -7631526.3     -7631526.3      1137.854      -7630388.4     -2231.1857     -2230.1463     -2257.8915      13.384361     -10.596915     -17.85929       12235.223    
    131000   381.44264      0.0655         0.2241942      0.22470074     0.22725673    -2224.366       567.79242      567.79242      567.79242      1.8304959e+08  2.1941388     -7623708.3     -7623708.3      1135.8711     -7622572.4     -2212.6247     -2217.6239     -2242.8495      8.0382964     -9.5072348     -15.562539      12103.503    
    132000   380.94613      0.066          0.2228645      0.22327181     0.22608414    -2211.4333      568.05886      568.05886      568.05886      1.8330741e+08  2.1910528     -7615929       -7615929        1134.3925     -7614794.6     -2199.5016     -2203.5214     -2231.277       2.7249993     -10.513226     -14.173153      12142.028    
    133000   380.16458      0.0665         0.22182475     0.22169377     0.22487723    -2198.851       568.3253       568.3253       568.3253       1.8356547e+08  2.1879726     -7608182.3     -7608182.3      1132.0652     -7607050.2     -2189.24       -2187.9474     -2219.3657      1.239726      -11.159242     -14.556173      12195.08     
    134000   379.09383      0.067          0.22078872     0.2200739      0.22324153    -2184.7328      568.59175      568.59175      568.59175      1.8382377e+08  2.1848982     -7600479.5     -7600479.5      1128.8767     -7599350.6     -2179.0153     -2171.9605     -2203.2226      3.3480077     -11.819296     -16.544993      12209.727    
    135000   377.83368      0.0675         0.21960598     0.21847715     0.2213953     -2169.5154      568.85819      568.85819      568.85819      1.8408231e+08  2.1818295     -7592822.4     -7592822.4      1125.1242     -7591697.3     -2167.3425     -2156.2018     -2185.0018      6.9495487     -14.841222     -17.778878      12235.095    
    136000   376.59332      0.068          0.21809698     0.21702831     0.21977424    -2154.4519      569.12464      569.12464      569.12464      1.8434109e+08  2.1787666     -7585212.5     -7585212.5      1121.4306     -7584091.1     -2152.4498     -2141.9029     -2169.0031      8.9486785     -17.237226     -18.352896      12194.447    
    137000   375.20518      0.0685         0.21655583     0.21556725     0.21831534    -2139.7761      569.39108      569.39108      569.39108      1.8460012e+08  2.1757094     -7577644.1     -7577644.1      1117.297      -7576526.8     -2137.2399     -2127.4833     -2154.6049      6.6905261     -16.408377     -18.658116      11997.534    
    138000   373.75917      0.069          0.2149216      0.21409356     0.21687783    -2124.8227      569.65753      569.65753      569.65753      1.8485939e+08  2.1726579     -7570116.1     -7570116.1      1112.991      -7569003.1     -2121.1113     -2112.9391     -2140.4177      3.3527399     -13.781784     -17.428449      12197.144    
    139000   372.31861      0.0695         0.21312073     0.21271271     0.21555793    -2110.0136      569.92397      569.92397      569.92397      1.851189e+08   2.1696121     -7562632.6     -7562632.6      1108.7012     -7561523.9     -2103.3381     -2099.3113     -2127.3914      5.2532208     -11.664221     -16.457751      12185.109    
    140000   370.46988      0.07           0.21139922     0.21137784     0.21435074    -2095.9875      570.19041      570.19041      570.19041      1.8537866e+08  2.166572      -7555193.9     -7555193.9      1103.1961     -7554090.7     -2086.3481     -2086.137      -2115.4774      9.3558042     -11.930924     -17.261538      12166.598    
    141000   368.48603      0.0705         0.20975766     0.20998673     0.21287687    -2081.1621      570.45686      570.45686      570.45686      1.8563866e+08  2.1635376     -7547798       -7547798        1097.2885     -7546700.7     -2070.1471     -2072.4079     -2100.9313      8.5770741     -13.985508     -18.086375      12159        
    142000   367.1609       0.071          0.20838208     0.20883654     0.21125823    -2067.5281      570.7233       570.7233       570.7233       1.858989e+08   2.1605088     -7540435.3     -7540435.3      1093.3425     -7539341.9     -2056.5712     -2061.0564     -2084.9566      5.5746525     -14.575659     -16.850152      12099.478    
    143000   366.27623      0.0715         0.20789379     0.20804746     0.21000093    -2059.1897      570.98975      570.98975      570.98975      1.8615938e+08  2.1574857     -7533099.5     -7533099.5      1090.7081     -7532008.8     -2051.7522     -2053.2688     -2072.548       5.4339215     -13.851793     -13.07463       12146.769    
    144000   365.23382      0.072          0.2076143      0.20703199     0.20904664    -2051.7902      571.25619      571.25619      571.25619      1.8642011e+08  2.1544683     -7525790.2     -7525790.2      1087.6039     -7524702.6     -2048.9938     -2043.2469     -2063.13        8.2156235     -11.49683      -9.3063772      12147.592    
    145000   364.61765      0.0725         0.20655628     0.20556644     0.20794467    -2039.8631      571.52263      571.52263      571.52263      1.8668108e+08  2.1514564     -7518511.5     -7518511.5      1085.7691     -7517425.7     -2038.552      -2028.7831     -2052.2543      10.348        -7.8294733     -7.2344685      12231.581    
    146000   364.38319      0.073          0.20477155     0.20418496     0.20687448    -2025.9265      571.78908      571.78908      571.78908      1.8694229e+08  2.1484502     -7511267.5     -7511267.5      1085.0709     -7510182.4     -2020.9381     -2015.1489     -2041.6923      10.011651     -6.6249998     -9.3338302      12227.805    
    147000   363.3748       0.0735         0.20303385     0.20324651     0.20581397    -2013.6338      572.05552      572.05552      572.05552      1.8720375e+08  2.1454496     -7504055.5     -7504055.5      1082.0681     -7502973.4     -2003.7883     -2005.8871     -2031.2259      8.0350956     -9.2147346     -13.859599      12138.218    
    148000   361.42561      0.074          0.20175373     0.2021903      0.20449406    -2001.6057      572.32197      572.32197      572.32197      1.8746545e+08  2.1424545     -7496882.8     -7496882.8      1076.2638     -7495806.5     -1991.1545     -1995.4632     -2018.1994      5.6642566     -12.687832     -16.794993      12157.646    
    149000   359.42869      0.0745         0.20081875     0.20084002     0.20297976    -1989.1061      572.58841      572.58841      572.58841      1.877274e+08   2.1394651     -7489747.4     -7489747.4      1070.3172     -7488677.1     -1981.927      -1982.1369     -2003.2545      3.8481568     -14.774294     -18.462076      12210.904    
    150000   358.24935      0.075          0.19999395     0.19969539     0.20158664    -1978.0442      572.85485      572.85485      572.85485      1.8798959e+08  2.1364812     -7482634.3     -7482634.3      1066.8054     -7481567.5     -1973.7869     -1970.8403     -1989.5054      2.5871243     -15.267379     -19.682533      11816.268    
    151000   357.69054      0.0755         0.19905264     0.1986785      0.20073131    -1968.7884      573.1213       573.1213       573.1213       1.8825202e+08  2.1335028     -7475551.8     -7475551.8      1065.1414     -7474486.7     -1964.4969     -1960.8043     -1981.064       4.2790216     -14.519354     -19.57674       12262.546    
    152000   357.35071      0.076          0.19771752     0.19753327     0.19995756    -1958.0832      573.38774      573.38774      573.38774      1.885147e+08   2.13053       -7468510.7     -7468510.7      1064.1294     -7467446.6     -1951.3202     -1949.5018     -1973.4276      9.5262439     -12.838014     -17.289897      12201.933    
    153000   356.64197      0.0765         0.19623834     0.19655805     0.1989101     -1946.563       573.65419      573.65419      573.65419      1.8877762e+08  2.1275626     -7461506.3     -7461506.3      1062.0189     -7460444.3     -1936.7218     -1939.8771     -1963.09        13.410054     -11.500557     -14.369783      12230.646    
    154000   355.62642      0.077          0.19494554     0.19573443     0.19769477    -1935.6024      573.92063      573.92063      573.92063      1.8904078e+08  2.1246008     -7454524.7     -7454524.7      1058.9947     -7453465.7     -1923.9629     -1931.7487     -1951.0957      12.387162     -9.9053916     -12.629285      12206.866    
    155000   354.56277      0.0775         0.19402151     0.19469037     0.19652538    -1925.2809      574.18708      574.18708      574.18708      1.8930419e+08  2.1216445     -7447567.6     -7447567.6      1055.8274     -7446511.7     -1914.8434     -1921.4446     -1939.5547      8.3330768     -9.0403295     -12.004856      12144.287    
    156000   353.41685      0.078          0.1933732      0.19352872     0.19544334    -1915.767       574.45352      574.45352      574.45352      1.8956785e+08  2.1186937     -7440634.6     -7440634.6      1052.415      -7439582.2     -1908.4451     -1909.98       -1928.8758      5.8648348     -10.085507     -12.728591      12278.187    
    157000   352.18265      0.0785         0.1928316      0.19259119     0.19436003    -1907.3372      574.71996      574.71996      574.71996      1.8983175e+08  2.1157483     -7433727.2     -7433727.2      1048.7398     -7432678.5     -1903.0999     -1900.7273     -1918.1843      5.7183775     -12.140969     -14.036152      12197.956    
    158000   351.24719      0.079          0.1922078      0.19183409     0.19330954    -1899.3385      574.98641      574.98641      574.98641      1.9009589e+08  2.1128084     -7426845.7     -7426845.7      1045.9542     -7425799.8     -1896.9435     -1893.2552     -1907.8169      5.8583868     -11.513031     -14.771718      12198.539    
    159000   350.72163      0.0795         0.19129015     0.19082292     0.19239331    -1889.979       575.25285      575.25285      575.25285      1.9036028e+08  2.109874      -7419991.3     -7419991.3      1044.3891     -7418947       -1887.887      -1883.2758     -1898.7744      5.8771443     -9.277952      -15.6005        12150.519    
    160000   350.25317      0.08           0.19017122     0.18965748     0.1913346     -1878.9812      575.5193       575.5193       575.5193       1.9062492e+08  2.106945      -7413165.5     -7413165.5      1042.9941     -7412122.5     -1876.844      -1871.7738     -1888.3257      6.6645295     -8.8343835     -15.536245      12201.948    
    161000   349.70991      0.0805         0.18899828     0.1884919      0.19046056    -1868.4126      575.78574      575.78574      575.78574      1.908898e+08   2.1040214     -7406365.4     -7406365.4      1041.3764     -7405324       -1865.268      -1860.2704     -1879.6996      7.2810902     -10.926818     -13.729312      12223.05     
    162000   348.68191      0.081          0.18779814     0.18758064     0.19000291    -1859.9612      576.05218      576.05218      576.05218      1.9115492e+08  2.1011032     -7399588.2     -7399588.2      1038.3152     -7398549.9     -1853.4236     -1851.277      -1875.1829      7.1933814     -12.640424     -11.538879      12200.85     
    163000   347.20373      0.0815         0.18666599     0.18686494     0.18934016    -1851.702       576.31863      576.31863      576.31863      1.9142029e+08  2.0981904     -7392832.1     -7392832.1      1033.9134     -7391798.2     -1842.2501     -1844.2136     -1868.6421      8.4076354     -12.292896     -9.1488475      12281.052    
    164000   345.76931      0.082          0.18557081     0.18639271     0.18807997    -1842.3999      576.58507      576.58507      576.58507      1.9168591e+08  2.0952829     -7386103       -7386103        1029.642      -7385073.4     -1831.4415     -1839.5531     -1856.205       9.1523867     -10.918761     -7.7830008      12112.026    
    165000   344.78629      0.0825         0.18448311     0.18593999     0.18669142    -1832.7643      576.85152      576.85152      576.85152      1.9195177e+08  2.0923809     -7379401       -7379401        1026.7147     -7378374.3     -1820.7067     -1835.0851     -1842.5011      8.0844286     -10.007718     -9.9888382      12250.015    
    166000   344.25236      0.083          0.1839016      0.18526746     0.18553925    -1824.8484      577.11796      577.11796      577.11796      1.9221787e+08  2.0894842     -7372722.7     -7372722.7      1025.1247     -7371697.6     -1814.9677     -1828.4477     -1831.13        5.688636      -8.3861556     -14.601791      12108.201    
    167000   343.91241      0.0835         0.18382407     0.18440732     0.18457913    -1818.6052      577.3844       577.3844       577.3844       1.9248423e+08  2.0865928     -7366063.9     -7366063.9      1024.1124     -7365039.7     -1814.2025     -1819.9587     -1821.6544      2.8644909     -7.2819939     -18.670018      12196.122    
    168000   343.7016       0.084          0.18367643     0.18340141     0.18394412    -1812.7213      577.65085      577.65085      577.65085      1.9275083e+08  2.0837068     -7359417.3     -7359417.3      1023.4847     -7358393.8     -1812.7454     -1810.0311     -1815.3873      0.98581423    -8.5628366     -18.891115      12103.838    
    169000   343.5712       0.0845         0.18305158     0.18247033     0.18362301    -1806.5464      577.91729      577.91729      577.91729      1.9301767e+08  2.0808261     -7352789.7     -7352789.7      1023.0964     -7351766.6     -1806.5787     -1800.8422     -1812.2182      2.457594      -10.858661     -15.292746      12058.473    
    170000   343.22393      0.085          0.18209981     0.18171044     0.18353498    -1800.6258      578.18374      578.18374      578.18374      1.9328476e+08  2.0779507     -7346179.5     -7346179.5      1022.0623     -7345157.5     -1797.1854     -1793.3426     -1811.3494      6.0482069     -11.261546     -12.296948      12118.968    
    171000   342.47897      0.0855         0.18087842     0.18090386     0.18316407    -1792.7341      578.45018      578.45018      578.45018      1.935521e+08   2.0750806     -7339586.9     -7339586.9      1019.8439     -7338567.1     -1785.1312     -1785.3823     -1807.6888      9.2779052     -9.584462      -11.332907      12126.392    
    172000   341.50575      0.086          0.17980985     0.17999835     0.18229589    -1783.3838      578.71663      578.71663      578.71663      1.9381968e+08  2.0722158     -7333010.2     -7333010.2      1016.9458     -7331993.3     -1774.5852     -1776.4456     -1799.1206      9.9625863     -9.0312385     -11.232281      12139.345    
    173000   340.24115      0.0865         0.17895583     0.17897384     0.18100289    -1772.9503      578.98307      578.98307      578.98307      1.9408751e+08  2.0693563     -7326457.1     -7326457.1      1013.1801     -7325444       -1766.1567     -1766.3344     -1786.3596      8.281553      -10.509173     -10.980887      12074.339    
    174000   339.19562      0.087          0.17804271     0.17806457     0.17955135    -1762.1799      579.24951      579.24951      579.24951      1.9435559e+08  2.066502      -7319939.3     -7319939.3      1010.0666     -7318929.2     -1757.1449     -1757.3606     -1772.0341      5.6851662     -11.286208     -8.4610643      12128.743    
    175000   338.74993      0.0875         0.17695295     0.17762589     0.17825742    -1752.895       579.51596      579.51596      579.51596      1.9462391e+08  2.0636529     -7313456.2     -7313456.2      1008.7395     -7312447.5     -1746.3899     -1753.0312     -1759.2639      4.1989844     -9.6268969     -6.8589194      12086.24     
    176000   338.26443      0.088          0.176325       0.17749883     0.17737309    -1747.502       579.7824       579.7824       579.7824       1.9489248e+08  2.0608091     -7306985.9     -7306985.9      1007.2937     -7305978.6     -1740.1925     -1751.7772     -1750.5363      3.548998      -8.7651343     -9.0754337      12043.857    
    177000   337.82755      0.0885         0.17613061     0.17684486     0.17691542    -1743.2055      580.04885      580.04885      580.04885      1.951613e+08   2.0579706     -7300524.3     -7300524.3      1005.9928     -7299518.3     -1738.274      -1745.3231     -1746.0195      3.020418      -9.6144537     -12.535393      12108.397    
    178000   337.97959      0.089          0.17589671     0.175807       0.17681552    -1738.6931      580.31529      580.31529      580.31529      1.9543036e+08  2.0551372     -7294079       -7294079        1006.4455     -7293072.6     -1735.9655     -1735.0802     -1745.0335      4.3540352     -9.4120937     -14.021385      12133.672    
    179000   338.28397      0.0895         0.17549459     0.17494364     0.17677463    -1734.3954      580.58173      580.58173      580.58173      1.9569968e+08  2.052309      -7287646.2     -7287646.2      1007.3519     -7286638.9     -1731.9969     -1726.5595     -1744.63        6.9910517     -9.0034484     -12.489054      12142.214    
    180000   338.16947      0.09           0.17509749     0.17432036     0.17617869    -1729.0782      580.84818      580.84818      580.84818      1.9596923e+08  2.049486      -7281220.3     -7281220.3      1007.0109     -7280213.2     -1728.0778     -1720.4082     -1738.7485      7.9020194     -8.241718      -11.184404      12245.82     
    181000   337.62231      0.0905         0.17454433     0.17373731     0.17520231    -1722.1283      581.11462      581.11462      581.11462      1.9623904e+08  2.0466682     -7274809.5     -7274809.5      1005.3816     -7273804.1     -1722.6186     -1714.6539     -1729.1124      6.9758677     -6.7591406     -11.044076      12200.286    
    182000   337.20975      0.091          0.17336265     0.17314576     0.17420302    -1713.0074      581.38107      581.38107      581.38107      1.9650909e+08  2.0438556     -7268428.3     -7268428.3      1004.1531     -7267424.2     -1710.9563     -1708.8158     -1719.2501      7.2949808     -5.8988952     -9.2250167      12165.48     
    183000   336.75323      0.0915         0.17193018     0.17271359     0.17358677    -1704.8459      581.64751      581.64751      581.64751      1.967794e+08   2.0410481     -7262076.3     -7262076.3      1002.7936     -7261073.5     -1696.8189     -1704.5506     -1713.1682      6.8708843     -6.1612401     -7.8558842      12212.834    
    184000   335.94086      0.092          0.1708259      0.17202269     0.17304435    -1697.1558      581.91395      581.91395      581.91395      1.9704994e+08  2.0382457     -7255741.9     -7255741.9      1000.3745     -7254741.5     -1685.9206     -1697.732      -1707.815       4.0538249     -7.9164234     -7.818759       12294.279    
    185000   335.24143      0.0925         0.17017154     0.17099138     0.17230565    -1689.1803      582.1804       582.1804       582.1804       1.9732074e+08  2.0354485     -7249422.4     -7249422.4      998.29173     -7248424.1     -1679.4625     -1687.5538     -1700.5246      0.78233768    -10.113789     -8.6449635      12252.482    
    186000   334.81468      0.093          0.16993481     0.17020852     0.1715579     -1683.3662      582.44684      582.44684      582.44684      1.9759179e+08  2.0326564     -7243119.7     -7243119.7      997.02093     -7242122.7     -1677.1262     -1679.8275     -1693.1449      1.2527651     -11.239255     -9.7135228      12215.533    
    187000   334.256        0.0935         0.16978855     0.16972881     0.17103422    -1679.5841      582.71329      582.71329      582.71329      1.9786308e+08  2.0298694     -7236832.5     -7236832.5      995.3573      -7235837.1     -1675.6827     -1675.0931     -1687.9765      4.642228      -11.196594     -9.6189173      12136.055    
    188000   333.70545      0.094          0.16960006     0.16926036     0.17028691    -1674.9645      582.97973      582.97973      582.97973      1.9813462e+08  2.0270875     -7230560.9     -7230560.9      993.71784     -7229567.2     -1673.8224     -1670.4698     -1680.6012      6.1537631     -11.028495     -8.8568393      12057.778    
    189000   333.71021      0.0945         0.16922883     0.16877078     0.16932119    -1668.9557      583.24618      583.24618      583.24618      1.9840641e+08  2.0243107     -7224304.6     -7224304.6      993.73203     -7223310.9     -1670.1587     -1665.6381     -1671.0702      5.2429413     -9.7823945     -9.4390368      12113.952    
    190000   333.71505      0.095          0.16861955     0.16825341     0.16874053    -1663.339       583.51262      583.51262      583.51262      1.9867845e+08  2.0215389     -7218053.9     -7218053.9      993.74643     -7217060.1     -1664.1456     -1660.532      -1665.3395      6.0621482     -7.8469681     -10.738929      12189.334    
    191000   333.48848      0.0955         0.16775277     0.16748683     0.16847437    -1657.0901      583.77906      583.77906      583.77906      1.9895073e+08  2.0187722     -7211811.7     -7211811.7      993.07176     -7210818.6     -1655.5911     -1652.9665     -1662.7127      7.8224819     -7.6018282     -11.956062      12246.285    
    192000   333.49315      0.096          0.16691776     0.1667874      0.16846585    -1652.0142      584.04551      584.04551      584.04551      1.9922327e+08  2.0160105     -7205593.6     -7205593.6      993.08566     -7204600.5     -1647.3502     -1646.0637     -1662.6287      6.6647632     -8.6075581     -12.209427      12021.795    
    193000   332.99549      0.0965         0.16626629     0.16634479     0.1684386     -1648.3253      584.31195      584.31195      584.31195      1.9949605e+08  2.0132539     -7199394       -7199394        991.60371     -7198402.4     -1640.9207     -1641.6954     -1662.3597      3.3113215     -8.513331      -10.772665      12107.74     
    194000   332.34096      0.097          0.16567634     0.16604994     0.16777248    -1643.2232      584.5784       584.5784       584.5784       1.9976909e+08  2.0105023     -7193196.1     -7193196.1      989.65464     -7192206.5     -1635.0984     -1638.7855     -1655.7856      1.7179048     -7.2796211     -8.0900894      12098.273    
    195000   332.24804      0.0975         0.16509564     0.16558335     0.16650246    -1635.5998      584.84484      584.84484      584.84484      2.0004237e+08  2.0077557     -7187008.5     -7187008.5      989.37792     -7186019.2     -1629.3673     -1634.1806     -1643.2515      2.9548038     -7.0119017     -7.0244216      12244.338    
    196000   331.86958      0.098          0.16465443     0.16497801     0.16544537    -1628.6794      585.11128      585.11128      585.11128      2.003159e+08   2.0050141     -7180843       -7180843        988.25094     -7179854.7     -1625.0129     -1628.2064     -1632.8188      5.2618127     -8.4575286     -7.7601419      12193.362    
    197000   330.97089      0.0985         0.16428772     0.16435533     0.16479507    -1623.2852      585.37773      585.37773      585.37773      2.0058968e+08  2.0022775     -7174698       -7174698        985.57481     -7173712.4     -1621.3937     -1622.061      -1626.4008      6.9221558     -9.8438937     -8.4437956      12201.714    
    198000   330.52894      0.099          0.16400922     0.16376779     0.16420273    -1618.4875      585.64417      585.64417      585.64417      2.0086371e+08  1.9995459     -7168568.1     -7168568.1      984.25874     -7167583.9     -1618.6452     -1616.2624     -1620.555       7.2233404     -9.1338708     -8.5208846      12227.326    
    199000   330.80671      0.0995         0.16357954     0.16315353     0.16376819    -1613.6237      585.91062      585.91062      585.91062      2.0113799e+08  1.9968193     -7162451.2     -7162451.2      985.08588     -7161466.1     -1614.4045     -1610.2001     -1616.2664      6.2944352     -8.2125287     -9.031413       12145.648    
    200000   331.0779       0.1            0.16287819     0.16231358     0.16357767    -1607.9264      586.17706      586.17706      586.17706      2.0141252e+08  1.9940976     -7156343.4     -7156343.4      985.89344     -7155357.5     -1607.4827     -1601.9105     -1614.3861      5.1508041     -8.8432072     -8.4523817      11929.734    
    201000   331.31111      0.1005         0.16199598     0.16154826     0.16325787    -1601.4544      586.4435       586.4435       586.4435       2.016873e+08   1.9913808     -7150253.7     -7150253.7      986.5879      -7149267.1     -1598.776      -1594.3574     -1611.2299      5.3352277     -8.857682      -7.5309756      12154.153    
    202000   331.63619      0.101          0.16144546     0.16132861     0.16274233    -1597.2248      586.70995      586.70995      586.70995      2.0196232e+08  1.988669      -7144190.6     -7144190.6      987.55593     -7143203       -1593.3428     -1592.1896     -1606.1419      6.3012237     -7.8991578     -7.720886       12246.577    
    203000   331.37533      0.1015         0.16132383     0.16137586     0.16225224    -1595.3678      586.97639      586.97639      586.97639      2.022376e+08   1.9859621     -7138130.2     -7138130.2      986.77914     -7137143.4     -1592.1424     -1592.6559     -1601.3051      6.1280462     -7.3071688     -7.4613298      12251.727    
    204000   330.7208       0.102          0.1610841      0.16109273     0.1617794     -1592.0922      587.24284      587.24284      587.24284      2.0251313e+08  1.9832601     -7132060.9     -7132060.9      984.83007     -7131076       -1589.7765     -1589.8617     -1596.6386      4.6423424     -8.0611308     -7.5414803      12172.653    
    205000   330.50091      0.1025         0.16045417     0.1604369      0.16125158    -1586.126       587.50928      587.50928      587.50928      2.0278891e+08  1.980563      -7126005.2     -7126005.2      984.17528     -7125021       -1583.5595     -1583.3891     -1591.4294      2.9557155     -9.7816489     -9.0059504      12193.78     
    206000   330.71855      0.103          0.15950772     0.1597715      0.16067342    -1578.9214      587.77573      587.77573      587.77573      2.0306494e+08  1.9778708     -7119979       -7119979        984.82338     -7118994.2     -1574.2188     -1576.8221     -1585.7233      2.7416603     -9.3154323     -10.369944      12243.8      
    207000   330.63786      0.1035         0.15886538     0.15910698     0.16029055    -1573.3627      588.04217      588.04217      588.04217      2.0334121e+08  1.9751835     -7113971.5     -7113971.5      984.58309     -7112987       -1567.8794     -1570.2638     -1581.9447      4.6133023     -7.1166575     -10.308735      12265.51     
    208000   330.11025      0.104          0.15838998     0.158264       0.15972051    -1567.1502      588.30861      588.30861      588.30861      2.0361774e+08  1.972501      -7107973.5     -7107973.5      983.01194     -7106990.5     -1563.1875     -1561.9442     -1576.3188      7.2439654     -5.9781971     -8.9495876      12042.195    
    209000   329.94118      0.1045         0.15783109     0.15739455     0.15869297    -1559.071       588.57506      588.57506      588.57506      2.0389452e+08  1.9698234     -7101996.8     -7101996.8      982.5085      -7101014.3     -1557.6718     -1553.3635     -1566.1779      7.4972428     -5.7462909     -8.3376194      12127.946    
    210000   329.85319      0.105          0.15735928     0.15692924     0.15794953    -1553.5424      588.8415       588.8415       588.8415       2.0417155e+08  1.9671507     -7096045.8     -7096045.8      982.24649     -7095063.6     -1553.0153     -1548.7712     -1558.8407      5.4924166     -4.9101843     -8.5282853      12107.423    
    211000   329.54251      0.1055         0.15703688     0.15698101     0.15758433    -1551.4507      589.10795      589.10795      589.10795      2.0444884e+08  1.9644827     -7090108.2     -7090108.2      981.32133     -7089126.9     -1549.8335     -1549.2821     -1555.2364      4.4368281     -4.7480802     -7.2831519      12207.469    
    212000   329.11779      0.106          0.1565707      0.15711849     0.15738912    -1549.7271      589.37439      589.37439      589.37439      2.0472637e+08  1.9618196     -7084165.8     -7084165.8      980.05657     -7083185.7     -1545.2326     -1550.6389     -1553.3098      5.8662224     -5.2790272     -6.230363       12192.516    
    213000   329.00081      0.1065         0.15588757     0.15656632     0.15692887    -1544.1492      589.64083      589.64083      589.64083      2.0500415e+08  1.9591613     -7078223.9     -7078223.9      979.70824     -7077244.1     -1538.4907     -1545.1894     -1548.7675      7.0929773     -5.7804617     -6.8228248      12200.865    
    214000   329.46962      0.107          0.15534004     0.15550854     0.15636512    -1537.0136      589.90728      589.90728      589.90728      2.0528219e+08  1.9565079     -7072303.4     -7072303.4      981.10426     -7071322.3     -1533.087      -1534.7499     -1543.2037      6.2648758     -7.473888      -6.7102159      12194.416    
    215000   329.83675      0.1075         0.15511063     0.15466888     0.15598271    -1532.2386      590.17372      590.17372      590.17372      2.0556047e+08  1.9538592     -7066407.1     -7066407.1      982.19752     -7065424.9     -1530.8229     -1526.4631     -1539.4297      3.8798322     -8.70895       -5.5021195      12262.364    
    216000   329.82387      0.108          0.15497907     0.15405464     0.15545827    -1528.0598      590.44017      590.44017      590.44017      2.0583901e+08  1.9512152     -7060526       -7060526        982.15915     -7059543.9     -1529.5245     -1520.4011     -1534.2538      2.0201249     -7.4657009     -5.189441       12191.428    
    217000   329.65499      0.1085         0.15459532     0.15360135     0.15493818    -1523.5952      590.70661      590.70661      590.70661      2.061178e+08   1.9485761     -7054651.7     -7054651.7      981.65628     -7053670.1     -1525.7372     -1515.9274     -1529.121       2.6291378     -5.2760678     -5.8081996      12120.155    
[...]
   3065000   320.08393      1.5325         0.0037267181   0.0036563054   0.0035231974  -35.878677      1349.5395      1349.5395      1349.5395      2.4578579e+09  0.16340905    -1490199.1     -1490199.1      953.15528     -1489246       -36.779848     -36.084929     -34.771255      1.7673673      0.89596575     0.86885046     13019.895    
   3066000   320.0882       1.533          0.003720865    0.0036548354   0.0035206465  -35.846194      1349.8059      1349.8059      1349.8059      2.4593139e+09  0.1633123     -1489562.9     -1489562.9      953.16799     -1488609.8     -36.722083     -36.070421     -34.74608       1.7671763      0.88102706     0.86671248     13034.845    
   3067000   320.05499      1.5335         0.0037139152   0.0036508209   0.0035163978  -35.796147      1350.0723      1350.0723      1350.0723      2.4607706e+09  0.16321563    -1488927.3     -1488927.3      953.06909     -1487974.2     -36.653493     -36.030801     -34.704148      1.7432032      0.8956267      0.86088281     13055.892    
   3068000   320.00033      1.534          0.003706806    0.0036447456   0.0035115124  -35.736702      1350.3388      1350.3388      1350.3388      2.4622278e+09  0.16311903    -1488292.4     -1488292.4      952.90633     -1487339.5     -36.583331     -35.970843     -34.655933      1.715071       0.92221831     0.85050433     13264.565    
   3069000   319.93112      1.5345         0.0036995225   0.0036385654   0.0035072541  -35.678401      1350.6052      1350.6052      1350.6052      2.4636856e+09  0.16302251    -1487658.5     -1487658.5      952.70024     -1486705.8     -36.511448     -35.909848     -34.613907      1.696834       0.94743509     0.84085956     13263.59     
   3070000   319.84438      1.535          0.0036928678   0.0036348178   0.0035043229  -35.634537      1350.8717      1350.8717      1350.8717      2.465144e+09   0.16292606    -1487025.2     -1487025.2      952.44194     -1486072.7     -36.445772     -35.872862     -34.584978      1.6839828      0.96348211     0.83460302     13270.922    
   3071000   319.75077      1.5355         0.0036872236   0.0036331676   0.0035040897  -35.609773      1351.1381      1351.1381      1351.1381      2.4666029e+09  0.1628297     -1486392       -1486392        952.16319     -1485439.8     -36.390068     -35.856576     -34.582676      1.6736381      0.96225503     0.83962468     13249.325    
   3072000   319.67244      1.536          0.0036817215   0.0036324588   0.0035051427  -35.592805      1351.4046      1351.4046      1351.4046      2.4680625e+09  0.1627334     -1485758.8     -1485758.8      951.92994     -1484806.9     -36.335766     -35.849581     -34.593069      1.6650366      0.95725973     0.8581829      13293.585    
   3073000   319.61896      1.5365         0.0036764094   0.0036311343   0.0035039764  -35.567136      1351.671       1351.671       1351.671       2.4695226e+09  0.16263719    -1485125.6     -1485125.6      951.77069     -1484173.8     -36.28334      -35.836509     -34.581558      1.6653378      0.96183689     0.87744639     13230.02     
   3074000   319.58991      1.537          0.003672316    0.0036270367   0.0034980382  -35.520654      1351.9375      1351.9375      1351.9375      2.4709833e+09  0.16254105    -1484492.8     -1484492.8      951.68418     -1483541.1     -36.242941     -35.796069     -34.522953      1.6779952      0.97299203     0.88738204     13288.611    
   3075000   319.58788      1.5375         0.0036692519   0.0036198914   0.0034884299  -35.455459      1352.2039      1352.2039      1352.2039      2.4724445e+09  0.16244498    -1483861.1     -1483861.1      951.67814     -1482909.4     -36.212701     -35.725551     -34.428126      1.7036488      0.98289884     0.89287336     13270.567    
   3076000   319.61504      1.538          0.0036660202   0.0036124857   0.0034783743  -35.387384      1352.4703      1352.4703      1352.4703      2.4739063e+09  0.162349      -1483230.7     -1483230.7      951.75902     -1482279       -36.180806     -35.652462     -34.328885      1.7379185      0.98584698     0.90291972     13407.058    
   3077000   319.66518      1.5385         0.0036628735   0.0036075745   0.0034720348  -35.34002       1352.7368      1352.7368      1352.7368      2.4753688e+09  0.16225308    -1482601.4     -1482601.4      951.90831     -1481649.5     -36.149751     -35.603992     -34.266319      1.767932       0.97515252     0.91758155     13316.623    
   3078000   319.71885      1.539          0.0036582129   0.0036045501   0.0034695558  -35.306584      1353.0032      1353.0032      1353.0032      2.4768317e+09  0.16215724    -1481972.7     -1481972.7      952.06814     -1481020.6     -36.103754     -35.574143     -34.241853      1.7851274      0.95676283     0.92604513     13277.519    
   3079000   319.7637       1.5395         0.0036506236   0.0036019605   0.0034674666  -35.266225      1353.2697      1353.2697      1353.2697      2.4782953e+09  0.16206148    -1481344.4     -1481344.4      952.2017      -1480392.2     -36.028854     -35.548586     -34.221234      1.7927036      0.94325011     0.91818244     13283.607    
   3080000   319.79844      1.54           0.0036418488   0.003599256    0.0034648531  -35.219863      1353.5361      1353.5361      1353.5361      2.4797594e+09  0.1619658     -1480716.9     -1480716.9      952.30515     -1479764.6     -35.942254     -35.521895     -34.195442      1.801626       0.94521212     0.8941596      13489.991    
   3081000   319.8194       1.5405         0.0036356283   0.0035974278   0.003463765   -35.189805      1353.8026      1353.8026      1353.8026      2.4812241e+09  0.16187018    -1480090       -1480090        952.36756     -1479137.7     -35.880862     -35.503851     -34.184703      1.8193112      0.96094803     0.86770018     13492.708    
   3082000   319.82213      1.541          0.003633123    0.0035980161   0.0034650138  -35.187607      1354.069       1354.069       1354.069       2.4826894e+09  0.16177465    -1479463.4     -1479463.4      952.3757      -1478511       -35.856136     -35.509658     -34.197027      1.8317936      0.98413379     0.85573207     13505.392    
   3083000   319.81763      1.5415         0.0036347967   0.0036010231   0.0034678764  -35.212423      1354.3355      1354.3355      1354.3355      2.4841553e+09  0.16167919    -1478836.2     -1478836.2      952.36228     -1477883.8     -35.872654     -35.539335     -34.225279      1.837224       1.0050915      0.87166736     13547.813    
   3084000   319.82788      1.542          0.0036406893   0.0036041428   0.0034712062  -35.253025      1354.6019      1354.6019      1354.6019      2.4856217e+09  0.1615838     -1478207.9     -1478207.9      952.3928      -1477255.5     -35.93081      -35.570124     -34.258141      1.8481907      1.0122825      0.90483936     13726.102    
   3085000   319.859        1.5425         0.0036491274   0.0036052973   0.0034733089  -35.291499      1354.8683      1354.8683      1354.8683      2.4870888e+09  0.16148849    -1477578.4     -1477578.4      952.48548     -1476625.9     -36.014087     -35.581517     -34.278894      1.8786998      0.99818433     0.92643755     13707.47     
   3086000   319.89805      1.543          0.0036552295   0.0036037008   0.0034730004  -35.305307      1355.1348      1355.1348      1355.1348      2.4885564e+09  0.16139325    -1476948       -1476948        952.60176     -1475995.4     -36.07431      -35.565762     -34.275849      1.9196582      0.9657933      0.91795097     13725.308    
   3087000   319.93524      1.5435         0.0036560577   0.003600806    0.0034705915  -35.290584      1355.4012      1355.4012      1355.4012      2.4900245e+09  0.16129809    -1476317.4     -1476317.4      952.71252     -1475364.7     -36.082484     -35.537192     -34.252075      1.9518914      0.932643       0.87718797     13750.489    
   3088000   319.96203      1.544          0.0036514944   0.0035982454   0.0034646154  -35.247488      1355.6677      1355.6677      1355.6677      2.4914933e+09  0.16120301    -1475687.4     -1475687.4      952.79229     -1474734.6     -36.037448     -35.511921     -34.193095      1.9626388      0.90980183     0.81125403     13734.632    
   3089000   319.96757      1.5445         0.0036447976   0.0035947977   0.0034552101  -35.183174      1355.9341      1355.9341      1355.9341      2.4929626e+09  0.16110799    -1475058.2     -1475058.2      952.80878     -1474105.4     -35.971355     -35.477895     -34.100273      1.9408217      0.90399092     0.73978869     13618.845    
   3090000   319.94006      1.545          0.0036389328   0.00359        0.0034447262  -35.113608      1356.2006      1356.2006      1356.2006      2.4944325e+09  0.16101306    -1474430.3     -1474430.3      952.72686     -1473477.6     -35.913475     -35.430545     -33.996805      1.8977108      0.91277776     0.69967554     13526.695    
   3091000   319.87672      1.5455         0.0036355227   0.0035842397   0.0034348329  -35.050893      1356.467       1356.467       1356.467       2.495903e+09   0.1609182     -1473803.5     -1473803.5      952.53824     -1472850.9     -35.879819     -35.373695     -33.899165      1.8575884      0.93025229     0.71534524     13658.504    
   3092000   319.7967       1.546          0.0036360285   0.0035780195   0.0034275084  -35.007999      1356.7335      1356.7335      1356.7335      2.4973741e+09  0.16082341    -1473177.3     -1473177.3      952.29998     -1472225       -35.884811     -35.312307     -33.826878      1.839799       0.94925175     0.76334578     13548.487    
   3093000   319.72607      1.5465         0.0036392013   0.0035716141   0.0034248269  -34.988543      1356.9999      1356.9999      1356.9999      2.4988457e+09  0.16072869    -1472551.4     -1472551.4      952.08964     -1471599.3     -35.916124     -35.249091     -33.800414      1.8366804      0.96100971     0.80482196     13575.323    
   3094000   319.67346      1.547          0.0036404346   0.0035651845   0.0034264207  -34.976691      1357.2663      1357.2663      1357.2663      2.5003179e+09  0.16063406    -1471925.2     -1471925.2      951.93298     -1470973.2     -35.928296     -35.185635     -33.816143      1.823914       0.95676138     0.82745859     13657.101    
   3095000   319.6355       1.5475         0.0036373653   0.0035595266   0.0034311211  -34.963444      1357.5328      1357.5328      1357.5328      2.5017907e+09  0.16053949    -1471298.8     -1471298.8      951.81995     -1470347       -35.898005     -35.129796     -33.862532      1.7869807      0.94329401     0.83637377     13718.528    
   3096000   319.59811      1.548          0.0036305139   0.0035542893   0.003435599   -34.938407      1357.7992      1357.7992      1357.7992      2.5032641e+09  0.160445      -1470672.5     -1470672.5      951.7086      -1469720.8     -35.830386     -35.078108     -33.906726      1.7373783      0.92611572     0.84377186     13712.995    
   3097000   319.54614      1.5485         0.0036221094   0.003549374    0.0034378899  -34.902124      1358.0657      1358.0657      1358.0657      2.5047381e+09  0.16035058    -1470046.3     -1470046.3      951.55384     -1469094.7     -35.74744      -35.029598     -33.929335      1.6860982      0.90206845     0.85879708     13754.402    
   3098000   319.47911      1.549          0.0036146321   0.0035442059   0.0034376558  -34.859754      1358.3321      1358.3321      1358.3321      2.5062126e+09  0.16025624    -1469420.4     -1469420.4      951.35422     -1468469.1     -35.673645     -34.978592     -33.927025      1.6391773      0.87814109     0.87479653     13818.128    
   3099000   319.41244      1.5495         0.0036094739   0.003538843    0.0034360053  -34.819713      1358.5986      1358.5986      1358.5986      2.5076877e+09  0.16016197    -1468795.1     -1468795.1      951.1557      -1467844       -35.622738     -34.925665     -33.910735      1.607924       0.8636647      0.88805636     13855.397    
   3100000   319.3626       1.55           0.0036060316   0.003534097    0.0034335657  -34.78475       1358.865       1358.865       1358.865       2.5091634e+09  0.16006778    -1468170.3     -1468170.3      951.0073      -1467219.3     -35.588765     -34.878825     -33.886659      1.5994132      0.84300478     0.88641097     13389.591    
   3101000   319.34345      1.5505         0.0036031842   0.0035299132   0.0034292973  -34.747577      1359.1314      1359.1314      1359.1314      2.5106397e+09  0.15997366    -1467545.7     -1467545.7      950.95026     -1466594.7     -35.560664     -34.837535     -33.844533      1.6153783      0.80264769     0.87092632     13698.52     
   3102000   319.36767      1.551          0.0036007065   0.0035273625   0.0034233123  -34.711346      1359.3979      1359.3979      1359.3979      2.5121165e+09  0.15987961    -1466921.6     -1466921.6      951.0224      -1465970.6     -35.53621      -34.812361     -33.785466      1.6487349      0.757593       0.85705098     13789.84     
   3103000   319.42966      1.5515         0.0035984614   0.0035300181   0.0034186001  -34.697194      1359.6643      1359.6643      1359.6643      2.5135939e+09  0.15978564    -1466297.9     -1466297.9      951.20699     -1465346.7     -35.514052     -34.83857      -33.73896       1.6832207      0.72464034     0.85726465     13660.46     
   3104000   319.50536      1.552          0.0035932477   0.0035351097   0.003414016   -34.681712      1359.9308      1359.9308      1359.9308      2.5150719e+09  0.15969174    -1465674.2     -1465674.2      951.4324      -1464722.8     -35.462598     -34.88882      -33.693718      1.7005038      0.71040084     0.86024975     13619.803    
   3105000   319.57163      1.5525         0.0035828861   0.0035385728   0.0034078988  -34.638894      1360.1972      1360.1972      1360.1972      2.5165505e+09  0.15959791    -1465050.9     -1465050.9      951.62974     -1464099.3     -35.360337     -34.922998     -33.633346      1.7042836      0.71717579     0.85139847     13555.816    
   3106000   319.61826      1.553          0.00357086     0.0035398531   0.0034013336  -34.581945      1360.4637      1360.4637      1360.4637      2.5180297e+09  0.15950416    -1464428.7     -1464428.7      951.76861     -1463476.9     -35.241649     -34.935634     -33.568552      1.6988945      0.74567913     0.82595879     13542.566    
   3107000   319.64447      1.5535         0.0035612571   0.003539674    0.0033953357  -34.530033      1360.7301      1360.7301      1360.7301      2.5195094e+09  0.15941048    -1463807.4     -1463807.4      951.84666     -1462855.6     -35.146875     -34.933866     -33.509358      1.6877551      0.78618671     0.79064346     13461.39     
   3108000   319.64998      1.554          0.0035559484   0.0035394918   0.0033904068  -34.495755      1360.9966      1360.9966      1360.9966      2.5209898e+09  0.15931688    -1463186.8     -1463186.8      951.86306     -1462235       -35.094482     -34.932068     -33.460713      1.6755499      0.81652583     0.76488378     13371.297    
   3109000   319.63717      1.5545         0.0035548026   0.0035393883   0.0033889481  -34.486846      1361.263       1361.263       1361.263       2.5224707e+09  0.15922334    -1462566.4     -1462566.4      951.82491     -1461614.5     -35.083174     -34.931047     -33.446317      1.6659263      0.83579046     0.75771012     13344.013    
   3110000   319.60932      1.555          0.0035549724   0.0035379913   0.0033912932  -34.490524      1361.5294      1361.5294      1361.5294      2.5239521e+09  0.15912988    -1461945.4     -1461945.4      951.74197     -1460993.7     -35.08485      -34.91726      -33.469461      1.6561445      0.85021384     0.77033034     13308.37     
   3111000   319.56962      1.5555         0.0035541582   0.0035342025   0.0033941851  -34.484894      1361.7959      1361.7959      1361.7959      2.5254342e+09  0.1590365     -1461324.1     -1461324.1      951.62377     -1460372.5     -35.076815     -34.879866     -33.498002      1.6403521      0.86225517     0.79434868     13260.177    
   3112000   319.51382      1.556          0.0035510321   0.0035264542   0.0033942783  -34.449427      1362.0623      1362.0623      1362.0623      2.5269168e+09  0.15894318    -1460702.6     -1460702.6      951.45759     -1459751.1     -35.045962     -34.803397     -33.498923      1.6252273      0.87034739     0.81257197     13213.649    
   3113000   319.4402       1.5565         0.0035477509   0.0035142168   0.003389989   -34.384264      1362.3288      1362.3288      1362.3288      2.5284001e+09  0.15884994    -1460081.5     -1460081.5      951.23837     -1459130.3     -35.013579     -34.682623     -33.45659       1.6274459      0.86964392     0.8120569      13231.862    
   3114000   319.36151      1.557          0.003545193    0.0034995609   0.0033818192  -34.300759      1362.5952      1362.5952      1362.5952      2.5298839e+09  0.15875678    -1459461.8     -1459461.8      951.00404     -1458510.8     -34.988334     -34.537981     -33.375961      1.6494726      0.85151286     0.78867199     13308.602    
   3115000   319.29375      1.5575         0.0035437371   0.0034869587   0.0033727959  -34.224827      1362.8617      1362.8617      1362.8617      2.5313682e+09  0.15866368    -1458843.4     -1458843.4      950.80227     -1457892.6     -34.973965     -34.413607     -33.286907      1.6683504      0.82482196     0.76045523     13091.678    
   3116000   319.24797      1.558          0.0035431791   0.003479075    0.0033658581  -34.174232      1363.1281      1363.1281      1363.1281      2.5328532e+09  0.15857066    -1458226.1     -1458226.1      950.66594     -1457275.4     -34.968459     -34.3358       -33.218437      1.6588121      0.80118618     0.74857806     13202.288    
   3117000   319.22893      1.5585         0.0035435316   0.0034758044   0.0033619845  -34.151889      1363.3946      1363.3946      1363.3946      2.5343388e+09  0.15847771    -1457609.1     -1457609.1      950.60924     -1456658.5     -34.971937     -34.303523     -33.180208      1.6184539      0.79127257     0.75493994     13237.685    
   3118000   319.24129      1.559          0.0035441707   0.003474734    0.0033599449  -34.14376       1363.661       1363.661       1363.661       2.5358249e+09  0.15838484    -1456992       -1456992        950.64604     -1456041.4     -34.978245     -34.292958     -33.160078      1.5631913      0.78826004     0.77561243     13240.022    
   3119000   319.28497      1.5595         0.0035435782   0.0034740973   0.0033585614  -34.135165      1363.9274      1363.9274      1363.9274      2.5373116e+09  0.15829203    -1456374.8     -1456374.8      950.77612     -1455424.1     -34.972398     -34.286674     -33.146424      1.5193597      0.79366353     0.79561318     13222.934    
   3120000   319.33728      1.56           0.0035407128   0.0034730628   0.003355699   -34.112919      1364.1939      1364.1939      1364.1939      2.5387989e+09  0.1581993     -1455757.7     -1455757.7      950.9319      -1454806.8     -34.944118     -34.276465     -33.118175      1.5045585      0.81900829     0.80955553     13099.086    
   3121000   319.3726       1.5605         0.0035358733   0.003471734    0.0033497352  -34.073008      1364.4603      1364.4603      1364.4603      2.5402867e+09  0.15810664    -1455140.9     -1455140.9      951.03707     -1454189.9     -34.896357     -34.26335      -33.059316      1.5203443      0.8572942      0.82763009     13105.614    
   3122000   319.38859      1.561          0.0035300212   0.0034698884   0.00334214    -34.022698      1364.7268      1364.7268      1364.7268      2.5417752e+09  0.15801406    -1454524.9     -1454524.9      951.0847      -14