LAMMPS (23 Jun 2022 - Update 1)
OMP_NUM_THREADS environment is not set. Defaulting to 1 thread. (src/comm.cpp:98)
  using 1 OpenMP thread(s) per MPI task
###

# Read restart info
read_restart ${read_res}
read_restart ./trial7/6040/equpmf71.res
Reading restart file ...
  restart file = 23 Jun 2022, LAMMPS = 23 Jun 2022
  restoring atom style atomic from restart
  orthogonal box = (1687.5531 1687.5531 1687.5531) to (2312.4469 2312.4469 2312.4469)
  2 by 1 by 2 MPI processor grid
  restoring pair style table from restart
  1000 atoms
  read_restart CPU = 0.055 seconds

# Settings
pair_style table/pgn spline 10941
pair_coeff 1 1 N20e.txt DE_GNP 308 72.9   # 1.35 * r
pair_coeff 2 2 N100e.txt DE_GNP 473.9 111.78
WARNING: 20 of 10941 force values in table DE_GNP are inconsistent with -dE/dr.
WARNING:  Should only be flagged at inflection points (src/pair_table_pgn.cpp:478)
pair_coeff 1 2 mixed_potentiale.txt DE_GNP 391.2 92.95
WARNING: 1564 of 10941 force values in table DE_GNP are inconsistent with -dE/dr.
WARNING:  Should only be flagged at inflection points (src/pair_table_pgn.cpp:478)

# Neighbor list
neighbor 2.0 bin
neigh_modify delay 0 every 1 check no once yes

# Temperature
variable T equal ${Temp}
variable T equal 300

# Deformation
reset_timestep 0
variable tmp equal "lx"
variable L0 equal ${tmp}
variable L0 equal 624.893857055973
variable strain equal "(lx - v_L0)/v_L0"
variable stp equal "step"
variable tmpe equal "temp"
variable p1 equal "v_strain"
variable p2 equal "-pxx*1.01325/10000"
variable p3 equal "-pyy*1.01325/10000"
variable p4 equal "-pzz*1.01325/10000"
variable p5 equal "lx"
variable p6 equal "ly"
variable p7 equal "lz"
variable p8 equal "press"
variable p9 equal "epair"
variable p10 equal "etotal"

# Thermo
thermo_style custom step temp v_p1 v_p2 v_p3 v_p4 press lx ly lz vol density epair pe ke etotal pxx pyy pzz pxy pxz pyz spcpu
thermo ${ts_save}
thermo 1000

# Dump
# dump 1 all custom 2000 ./${N20}${N100}/tensile/trajectory/trajectory_${usic}_${trial}_*.tensile.custom id type x y z ix iy iz
# dump_modify 1 sort id
dump 2 all cfg 50000 ./trial${trial}/${N20}${N100}/tensile/trajectory/dumpten.tens_${usic}_${trial}_*.cfg mass type xs ys zs fx fy fz
dump 2 all cfg 50000 ./trial7/${N20}${N100}/tensile/trajectory/dumpten.tens_${usic}_${trial}_*.cfg mass type xs ys zs fx fy fz
dump 2 all cfg 50000 ./trial7/60${N100}/tensile/trajectory/dumpten.tens_${usic}_${trial}_*.cfg mass type xs ys zs fx fy fz
dump 2 all cfg 50000 ./trial7/6040/tensile/trajectory/dumpten.tens_${usic}_${trial}_*.cfg mass type xs ys zs fx fy fz
dump 2 all cfg 50000 ./trial7/6040/tensile/trajectory/dumpten.tens_1_${trial}_*.cfg mass type xs ys zs fx fy fz
dump 2 all cfg 50000 ./trial7/6040/tensile/trajectory/dumpten.tens_1_7_*.cfg mass type xs ys zs fx fy fz
dump_modify 2 element N20 N100

fix 1 all nvt temp ${T} ${T} 100
fix 1 all nvt temp 300 ${T} 100
fix 1 all nvt temp 300 300 100
fix 2 all deform 1 x erate ${strain_rate} y erate ${strain_rate} z erate ${strain_rate} units box
fix 2 all deform 1 x erate 5e-6 y erate ${strain_rate} z erate ${strain_rate} units box
fix 2 all deform 1 x erate 5e-6 y erate 5e-6 z erate ${strain_rate} units box
fix 2 all deform 1 x erate 5e-6 y erate 5e-6 z erate 5e-6 units box
fix             def1 all print ${ts_save} "${p1} ${p2} ${p3} ${p4}" file ./tensile/${trial}/tensile${N20}${N100}_${usic}_${trial}.txt screen no
fix             def1 all print 1000 "${p1} ${p2} ${p3} ${p4}" file ./tensile/${trial}/tensile${N20}${N100}_${usic}_${trial}.txt screen no
fix             def1 all print 1000 "${p1} ${p2} ${p3} ${p4}" file ./tensile/7/tensile${N20}${N100}_${usic}_${trial}.txt screen no
fix             def1 all print 1000 "${p1} ${p2} ${p3} ${p4}" file ./tensile/7/tensile60${N100}_${usic}_${trial}.txt screen no
fix             def1 all print 1000 "${p1} ${p2} ${p3} ${p4}" file ./tensile/7/tensile6040_${usic}_${trial}.txt screen no
fix             def1 all print 1000 "${p1} ${p2} ${p3} ${p4}" file ./tensile/7/tensile6040_1_${trial}.txt screen no
fix             def1 all print 1000 "${p1} ${p2} ${p3} ${p4}" file ./tensile/7/tensile6040_1_7.txt screen no

timestep       		${ts}
timestep       		0.1
run				${steps_tensile}
run				6000000
Generated 0 of 1 mixed pair_coeff terms from geometric mixing rule
Unused restart file global fix info:
  fix style: npt, fix ID: 5
Neighbor list info ...
  update every 1 steps, delay 0 steps, check no
  max neighbors/atom: 2000, page size: 100000
  master list distance cutoff = 113.78
  ghost atom cutoff = 113.78
  binsize = 56.89, bins = 11 11 11
  1 neighbor lists, perpetual/occasional/extra = 1 0 0
  (1) pair table/pgn, perpetual
      attributes: half, newton on
      pair build: half/bin/atomonly/newton
      stencil: half/bin/3d
      bin: standard
Per MPI rank memory allocation (min/avg/max) = 3.854 | 3.855 | 3.855 Mbytes
   Step          Temp           v_p1           v_p2           v_p3           v_p4          Press            Lx             Ly             Lz           Volume        Density         E_pair         PotEng         KinEng         TotEng          Pxx            Pyy            Pzz            Pxy            Pxz            Pyz           S/CPU     
         0   299.1437       5.4578951e-16  0.026453721    0.0088418373   0.020073136   -182.14884      624.89386      624.89386      624.89386      2.4401626e+08  2.0546507     -23815354      -23815354       890.79887     -23814463      -261.07793     -87.26215      -198.10645     -35.440829     -10.54026       22.725191      0            
      1000   341.87943      0.0005         0.035989298    0.018549334    0.029647184   -276.9498       625.2063       625.2063       625.2063       2.4438247e+08  2.0515718     -23814274      -23814274       1018.0586     -23813256      -355.18675     -183.06769     -292.59496     -36.769986     -11.179707      21.175705      9874.1623    
      2000   426.56262      0.001          0.044329623    0.027215894    0.03820451    -361.04951      625.51875      625.51875      625.51875      2.4474904e+08  2.048499      -23812975      -23812975       1270.2307     -23811705      -437.49936     -268.59999     -377.04919     -40.342976     -12.366385      21.203955      10211.755    
      3000   505.05415      0.0015         0.051620698    0.034896323    0.045763329   -435.16852      625.8312       625.8312       625.8312       2.4511598e+08  2.0454324     -23811457      -23811457       1503.965      -23809953      -509.45667     -344.39993     -451.64895     -42.334149     -11.691395      21.865818      10368.644    
      4000   548.33796      0.002          0.058666661    0.042221586    0.053087319   -506.54023      626.14364      626.14364      626.14364      2.4548329e+08  2.0423719     -23809661      -23809661       1632.8568     -23808029      -578.99493     -416.69466     -523.9311      -40.93567      -9.5230939      22.276343      10202.785    
      5000   558.28449      0.0025         0.066112346    0.049837927    0.060737717   -581.2583       626.45609      626.45609      626.45609      2.4585096e+08  2.0393175     -23807514      -23807514       1662.4759     -23805851      -652.47813     -491.86209     -599.43466     -38.525313     -8.7656939      23.565187      10132.032    
      6000   548.13059      0.003          0.073784235    0.057906911    0.068716057   -659.28844      626.76854      626.76854      626.76854      2.46219e+08    2.0362692     -23804961      -23804961       1632.2393     -23803329      -728.19378     -571.49678     -678.17475     -35.889043     -9.1486159      25.00258       10296.883    
      7000   529.46131      0.0035         0.081463226    0.065997839    0.076590114   -737.07107      627.08099      627.08099      627.08099      2.4658741e+08  2.033227      -23801971      -23801971       1576.6454     -23800394      -803.97953     -651.34803     -755.88565     -33.638756     -9.178666       24.291948      10160.806    
      8000   508.68504      0.004          0.0891338      0.073952118    0.084325024   -813.91872      627.39343      627.39343      627.39343      2.4695618e+08  2.0301908     -23798528      -23798528       1514.7772     -23797013      -879.68221     -729.85066     -832.22329     -33.979276     -8.7536153      21.492465      10617.212    
      9000   488.86889      0.0045         0.096623038    0.081756247    0.092008925   -889.50805      627.70588      627.70588      627.70588      2.4732533e+08  2.0271607     -23794638      -23794638       1455.7681     -23793182      -953.59524     -806.87143     -908.05749     -36.495017     -8.8102108      19.081137      10129.397    
     10000   471.13486      0.005          0.10381048     0.089167694    0.099408166   -961.87628      628.01833      628.01833      628.01833      2.4769484e+08  2.0241366     -23790316      -23790316       1402.9592     -23788913      -1024.5298     -880.01672     -981.08232     -38.050657     -9.8303801      18.216466      10365.587    
     11000   455.44925      0.0055         0.11060037     0.096147044    0.10619815    -1029.5109      628.33077      628.33077      628.33077      2.4806471e+08  2.0211185     -23785586      -23785586       1356.2501     -23784230      -1091.5408     -948.89755     -1048.0943     -38.081693     -9.1721508      17.645852      10123.062    
     12000   441.89362      0.006          0.11700485     0.10290207     0.11259606    -1093.8498      628.64322      628.64322      628.64322      2.4843496e+08  2.0181064     -23780470      -23780470       1315.8837     -23779154      -1154.7481     -1015.5645     -1111.2367     -37.808538     -6.353382       16.76039       10192.321    
     13000   430.61067      0.0065         0.12314196     0.1095369      0.1190576     -1157.123       628.95567      628.95567      628.95567      2.4880557e+08  2.0151003     -23774976      -23774976       1282.285      -23773694      -1215.3167     -1081.0451     -1175.0071     -36.864107     -4.0251151      16.611402      10369.008    
     14000   421.52248      0.007          0.12935351     0.11619249     0.12579386    -1221.6131      629.26811      629.26811      629.26811      2.4917656e+08  2.0121001     -23769108      -23769108       1255.222      -23767853      -1276.6199     -1146.7307     -1241.4889     -35.364429     -3.078288       17.052253      10345.93     
     15000   413.79066      0.0075         0.13578736     0.12298917     0.13270064    -1287.8598      629.58056      629.58056      629.58056      2.4954791e+08  2.0091059     -23762862      -23762862       1232.1979     -23761630      -1340.1171     -1213.8088     -1309.6535     -34.287297     -3.4580083      16.732622      10551.84     
     16000   407.00916      0.008          0.14221213     0.1296954      0.13920393    -1352.4516      629.89301      629.89301      629.89301      2.4991963e+08  2.0061177     -23756242      -23756242       1212.0038     -23755030      -1403.5246     -1279.994      -1373.836      -33.627956     -4.3284326      15.95183       10334.854    
     17000   401.50196      0.0085         0.14842721     0.13612381     0.14519882    -1413.7671      630.20545      630.20545      630.20545      2.5029171e+08  2.0031353     -23749263      -23749263       1195.6043     -23748067      -1464.8627     -1343.4376     -1433.0009     -33.415009     -4.9479656      15.670155      10313.351    
     18000   397.38754      0.009          0.1543487      0.14220567     0.1510477     -1472.4963      630.5179       630.5179       630.5179       2.5066417e+08  2.0001589     -23741942      -23741942       1183.3522     -23740759      -1523.3032     -1403.4609     -1490.7249     -32.620797     -5.8890878      15.563488      10366.24     
     19000   394.38954      0.0095         0.15987075     0.1479478      0.15684475    -1528.6234      630.83035      630.83035      630.83035      2.51037e+08    1.9971884     -23734294      -23734294       1174.4247     -23733120      -1577.8017     -1460.1313     -1547.9373     -31.826881     -5.6130827      14.714209      10577.308    
     20000   391.97661      0.01           0.16512188     0.15347037     0.16236586    -1582.2292      631.1428       631.1428       631.1428       2.514102e+08   1.9942237     -23726336      -23726336       1167.2394     -23725169      -1629.6262     -1514.6348     -1602.4265     -32.328074     -4.1554053      13.24297       10427.885    
     21000   390.15854      0.0105         0.17021814     0.15882189     0.16751719    -1633.5463      631.45524      631.45524      631.45524      2.5178376e+08  1.9912649     -23718081      -23718081       1161.8255     -23716919      -1679.9224     -1567.4501     -1653.2662     -33.737789     -2.4824186      12.139578      10467.947    
     22000   388.87146      0.011          0.17537872     0.1642545      0.17267306    -1685.3567      631.76769      631.76769      631.76769      2.521577e+08   1.988312      -23709532      -23709532       1157.9928     -23708374      -1730.8534     -1621.0659     -1704.1506     -34.453884     -1.1877536      11.301068      10466.135    
     23000   387.73056      0.0115         0.18073715     0.16969567     0.17805458    -1738.5884      632.08014      632.08014      632.08014      2.5253201e+08  1.9853649     -23700681      -23700681       1154.5954     -23699527      -1783.737      -1674.766      -1757.2621     -33.486326      0.32656456     10.790461      10687.157    
     24000   386.99661      0.012          0.18598292     0.17498907     0.18334868    -1790.6758      632.39258      632.39258      632.39258      2.5290668e+08  1.9824236     -23691531      -23691531       1152.4098     -23690378      -1835.5087     -1727.0079     -1809.5107     -30.503445      1.5712337      10.294429      10616.512    
     25000   386.90351      0.0125         0.19091177     0.18028714     0.1883151     -1840.658       632.70503      632.70503      632.70503      2.5328173e+08  1.9794881     -23682102      -23682102       1152.1326     -23680950      -1884.1527     -1779.2957     -1858.5256     -27.88126       0.97767652     9.2352076      10642.152    
     26000   387.33688      0.013          0.19557307     0.1854808      0.19287481    -1888.0786      633.01748      633.01748      633.01748      2.5365715e+08  1.9765585     -23672404      -23672404       1153.4231     -23671251      -1930.1561     -1830.5532     -1903.5264     -27.095858     -0.19320232     8.7066136      10593.925    
     27000   388.19739      0.0135         0.19996392     0.19035896     0.1973918     -1933.431       633.32992      633.32992      633.32992      2.5403293e+08  1.9736346     -23662437      -23662437       1155.9856     -23661282      -1973.4905     -1878.6969     -1948.1056     -27.330519     -1.2251297      9.3411346      10611.716    
     28000   388.98344      0.014          0.2041528      0.19485855     0.20214704    -1977.6573      633.64237      633.64237      633.64237      2.5440909e+08  1.9707164     -23652210      -23652210       1158.3263     -23651052      -2014.8314     -1923.1044     -1995.0362     -27.380963     -1.667952       10.279802      10564.621    
     29000   389.7745       0.0145         0.20836045     0.19910462     0.20664713    -2020.2721      633.95482      633.95482      633.95482      2.5478562e+08  1.967804      -23641741      -23641741       1160.6819     -23640580      -2056.3578     -1965.0098     -2039.4486     -27.773192     -0.24178823     10.773198      10711.117    
     30000   390.93961      0.015          0.21254533     0.20326195     0.21077331    -2061.2898      634.26726      634.26726      634.26726      2.5516253e+08  1.9648974     -23631047      -23631047       1164.1514     -23629882      -2097.6593     -2006.0394     -2080.1708     -28.853752      1.8228513      10.574017      10556.393    
     31000   392.6731       0.0155         0.21660009     0.20729512     0.21476713    -2101.0357      634.57971      634.57971      634.57971      2.555398e+08   1.9619964     -23620131      -23620131       1169.3134     -23618961      -2137.6767     -2045.8437     -2119.5868     -29.456393      3.7179623      9.8253541      10610.638    
     32000   395.11719      0.016          0.22064702     0.2113786      0.21880898    -2141.0793      634.89216      634.89216      634.89216      2.5591744e+08  1.9591012     -23608984      -23608984       1176.5915     -23607807      -2177.6168     -2086.1445     -2159.4767     -28.053555      3.7871718      9.1051251      10362.709    
     33000   397.7328       0.0165         0.2246156      0.21575718     0.22275944    -2181.5354      635.20461      635.20461      635.20461      2.5629546e+08  1.9562117     -23597613      -23597613       1184.3804     -23596429      -2216.7836     -2129.3578     -2198.4647     -25.833956      2.3114301      8.2434852      10522.896    
     34000   399.7449       0.017          0.22835428     0.22021769     0.22657192    -2221.0507      635.51705      635.51705      635.51705      2.5667385e+08  1.9533278     -23586019      -23586019       1190.3721     -23584829      -2253.6815     -2173.3796     -2236.091      -24.820706      2.9023104      6.5103091      10528.228    
     35000   401.46498      0.0175         0.23184175     0.22413471     0.23010503    -2257.0326      635.8295       635.8295       635.8295       2.5705261e+08  1.9504497     -23574207      -23574207       1195.4942     -23573011      -2288.1002     -2212.0376     -2270.9601     -23.617001      4.8062402      5.8518485      10585.752    
     36000   403.37604      0.018          0.23519154     0.22742651     0.23338074    -2289.658       636.14195      636.14195      636.14195      2.5743174e+08  1.9475771     -23562204      -23562204       1201.185      -23561003      -2321.1601     -2244.5251     -2303.2889     -22.487179      5.5055393      6.0940417      10637.829    
     37000   405.17458      0.0185         0.2384547      0.23051613     0.2366117     -2321.186       636.45439      636.45439      636.45439      2.5781125e+08  1.9447102     -23550023      -23550023       1206.5407     -23548816      -2353.3649     -2275.0173     -2335.1759     -22.916162      5.1023199      6.0188029      10516.398    
     38000   407.11521      0.019          0.24146519     0.23362581     0.23993072    -2352.2386      636.76684      636.76684      636.76684      2.5819113e+08  1.941849      -23537658      -23537658       1212.3196     -23536446      -2383.0761     -2305.7075     -2367.9321     -23.007787      4.7026303      5.9238829      10462.328    
     39000   409.69877      0.0195         0.24452974     0.23703397     0.24336645    -2384.8348      637.07929      637.07929      637.07929      2.5857138e+08  1.9389933     -23525115      -23525115       1220.013      -23523895      -2413.3209     -2339.3434     -2401.8401     -21.831257      5.8742374      6.0850179      10493.924    
     40000   412.44554      0.02           0.24782439     0.24064403     0.24680682    -2418.8675      637.39173      637.39173      637.39173      2.5895201e+08  1.9361432     -23512389      -23512389       1228.1924     -23511160      -2445.8366     -2374.9719     -2435.794      -20.735208      6.6274226      6.3538645      10773.901    
     41000   414.9854       0.0205         0.25113669     0.24411733     0.24994878    -2451.5266      637.70418      637.70418      637.70418      2.5933301e+08  1.9332988     -23499476      -23499476       1235.7557     -23498240      -2478.5264     -2409.2507     -2466.8027     -20.0753        6.417855       6.6164433      10476.144    
     42000   417.35068      0.021          0.25392929     0.24718362     0.25269708    -2479.8421      638.01663      638.01663      638.01663      2.5971438e+08  1.9304598     -23486389      -23486389       1242.7991     -23485146      -2506.0872     -2439.5127     -2493.9263     -19.473401      7.0850499      6.2688726      10337.744    
     43000   419.39611      0.0215         0.25637319     0.24996375     0.25524497    -2505.4097      638.32907      638.32907      638.32907      2.6009612e+08  1.9276265     -23473144      -23473144       1248.89       -23471895      -2530.2067     -2466.9504     -2519.072      -19.524187      9.0825117      3.9107863      10608.029    
     44000   421.34847      0.022          0.25901721     0.25242606     0.25766028    -2530.154       638.64152      638.64152      638.64152      2.6047824e+08  1.9247987     -23459756      -23459756       1254.7038     -23458501      -2556.3011     -2491.2515     -2542.9093     -19.137978      10.916135      1.4943969      10669.574    
     45000   423.40116      0.0225         0.26193824     0.25491007     0.2601113     -2555.9984      638.95397      638.95397      638.95397      2.6086074e+08  1.9219764     -23446227      -23446227       1260.8163     -23444967      -2585.1295     -2515.7668     -2567.0989     -19.477319      11.623584      2.0382409      10465.029    
     46000   425.16079      0.023          0.26471549     0.25773957     0.26272253    -2583.0334      639.26642      639.26642      639.26642      2.612436e+08   1.9191596     -23432544      -23432544       1266.0562     -23431278      -2612.5388     -2543.6917     -2592.8698     -20.822362      11.138864      3.8290851      10626.63     
     47000   426.73876      0.0235         0.26704065     0.26048127     0.26517659    -2607.7753      639.57886      639.57886      639.57886      2.6162685e+08  1.9163484     -23418704      -23418704       1270.7552     -23417433      -2635.4863     -2570.7503     -2617.0895     -19.937501      10.186991      5.2261738      10463.842    
     48000   428.78723      0.024          0.26892872     0.26286205     0.26732195    -2628.8764      639.89131      639.89131      639.89131      2.6201046e+08  1.9135426     -23404728      -23404728       1276.8552     -23403451      -2654.1201     -2594.2468     -2638.2625     -16.70025       9.7762846      5.929823       10664.687    
     49000   430.85064      0.0245         0.27070114     0.26501691     0.26948609    -2648.9157      640.20376      640.20376      640.20376      2.6239446e+08  1.9107423     -23390636      -23390636       1282.9996     -23389353      -2671.6126     -2615.5135     -2659.6209     -14.491889      11.520977      5.7573164      10399.143    
     50000   432.25298      0.025          0.27270584     0.26716441     0.27156845    -2669.4258      640.5162       640.5162       640.5162       2.6277882e+08  1.9079474     -23376422      -23376422       1287.1756     -23375135      -2691.3974     -2636.7078     -2680.1722     -14.813552      13.94253       4.8450396      8546.0287    
     51000   433.59405      0.0255         0.2747743      0.26947942     0.27331027    -2689.5764      640.82865      640.82865      640.82865      2.6316356e+08  1.905158      -23362086      -23362086       1291.169      -23360795      -2711.8115     -2659.5551     -2697.3626     -16.018508      14.813825      3.7198068      9796.8599    
     52000   435.57128      0.026          0.27682151     0.27162923     0.27499909    -2708.9393      641.1411       641.1411       641.1411       2.6354868e+08  1.9023741     -23347641      -23347641       1297.0569     -23346344      -2732.0159     -2680.772      -2714.03       -16.194025      14.483159      3.2423582      10251.249    
     53000   437.78154      0.0265         0.27904034     0.27364564     0.27697474    -2729.3716      641.45354      641.45354      641.45354      2.6393417e+08  1.8995955     -23333081      -23333081       1303.6387     -23331778      -2753.9141     -2700.6725     -2733.5281     -15.081155      13.446155      3.3669213      10233.793    
     54000   439.46636      0.027          0.28112443     0.27574703     0.27900762    -2749.8284      641.76599      641.76599      641.76599      2.6432004e+08  1.8968224     -23318397      -23318397       1308.6558     -23317088      -2774.4824     -2721.4116     -2753.5911     -13.630604      13.499943      3.6159141      10422.105    
     55000   440.5753       0.0275         0.28257022     0.27771357     0.28088041    -2767.2151      642.07844      642.07844      642.07844      2.6470629e+08  1.8940547     -23303590      -23303590       1311.958      -23302278      -2788.7513     -2740.8198     -2772.0742     -13.178229      14.434868      5.0515775      10307.726    
     56000   441.53687      0.028          0.28346733     0.27913297     0.28232675    -2779.5939      642.39089      642.39089      642.39089      2.6509291e+08  1.8912923     -23288694      -23288694       1314.8214     -23287379      -2797.605      -2754.8282     -2786.3484     -14.151374      15.346113      7.0672686      10200.425    
     57000   442.885        0.0285         0.28451451     0.28029967     0.28350243    -2790.7447      642.70333      642.70333      642.70333      2.6547991e+08  1.8885353     -23273725      -23273725       1318.8359     -23272406      -2807.9399     -2766.3426     -2797.9514     -15.690045      14.65455       6.8173531      10452.987    
     58000   444.16502      0.029          0.28613698     0.28174021     0.28467286    -2804.6716      643.01578      643.01578      643.01578      2.6586728e+08  1.8857837     -23258680      -23258680       1322.6476     -23257357      -2823.9524     -2780.5597     -2809.5027     -15.930328      13.288407      4.5086073      10247.84     
     59000   445.18363      0.0295         0.28787795     0.28354671     0.28593306    -2820.4876      643.32823      643.32823      643.32823      2.6625503e+08  1.8830374     -23243537      -23243537       1325.6808     -23242211      -2841.1345     -2798.3884     -2821.9399     -14.487429      14.462852      1.6158752      10413.365    
     60000   446.0875       0.03           0.28939651     0.28538458     0.2873829     -2836.299       643.64067      643.64067      643.64067      2.6664316e+08  1.8802964     -23228293      -23228293       1328.3724     -23226964      -2856.1215     -2816.5268     -2836.2487     -12.660409      17.24398       1.4232684      10366.645    
     61000   447.24218      0.0305         0.2905732      0.28689106     0.28855219    -2848.9726      643.95312      643.95312      643.95312      2.6703166e+08  1.8775608     -23212963      -23212963       1331.8108     -23211631      -2867.7346     -2831.3946     -2847.7887     -10.715443      19.215747      5.4982214      10366.348    
     62000   448.52291      0.031          0.29142047     0.28806655     0.28933273    -2858.1948      644.26557      644.26557      644.26557      2.6742054e+08  1.8748305     -23197568      -23197568       1335.6246     -23196232      -2876.0964     -2842.9958     -2855.492      -9.5638504      18.709482      9.1595179      10397.662    
     63000   449.49297      0.0315         0.29225126     0.28885523     0.2900201     -2865.7837      644.57801      644.57801      644.57801      2.678098e+08   1.8721054     -23182110      -23182110       1338.5133     -23180771      -2884.2957     -2850.7795     -2862.2758     -9.6988625      17.225169      8.844682       10337.131    
     64000   450.44348      0.032          0.29313774     0.28943373     0.29089058    -2873.4668      644.89046      644.89046      644.89046      2.6819943e+08  1.8693857     -23166594      -23166594       1341.3438     -23165253      -2893.0446     -2856.4888     -2870.8668     -10.803018      16.326878      6.5255789      10193.098    
     65000   451.52169      0.0325         0.29391895     0.29031599     0.29200913    -2882.6189      645.20291      645.20291      645.20291      2.6858945e+08  1.8666712     -23151027      -23151027       1344.5545     -23149683      -2900.7545     -2865.1961     -2881.906      -11.934633      15.902562      5.2551785      10537.009    
     66000   452.26662      0.033          0.29479419     0.29164696     0.2930414     -2893.2726      645.51535      645.51535      645.51535      2.6897984e+08  1.8639619     -23135395      -23135395       1346.7728     -23134048      -2909.3925     -2878.3317     -2892.0937     -12.820333      16.424558      5.0192316      10318.213    
     67000   452.64469      0.0335         0.29586109     0.29296163     0.29376379    -2903.4839      645.8278       645.8278       645.8278       2.6937061e+08  1.8612579     -23119691      -23119691       1347.8986     -23118343      -2919.9219     -2891.3065     -2899.2232     -12.295794      17.039066      4.84345        10363.687    
     68000   453.07126      0.034          0.29678721     0.29382701     0.2941591     -2910.6779      646.14025      646.14025      646.14025      2.6976176e+08  1.8585591     -23103922      -23103922       1349.1688     -23102573      -2929.062      -2899.8471     -2903.1246     -10.826654      17.511931      5.7602249      10442.26     
     69000   453.42559      0.0345         0.29728212     0.2943414      0.29447214    -2915.0281      646.4527       646.4527       646.4527       2.7015328e+08  1.8558656     -23088110      -23088110       1350.224      -23086760      -2933.9464     -2904.9237     -2906.2141     -9.6005055      18.094351      7.137421       10514.614    
     70000   453.60771      0.035          0.29722576     0.29461101     0.29501543    -2917.5169      646.76514      646.76514      646.76514      2.7054519e+08  1.8531772     -23072267      -23072267       1350.7663     -23070916      -2933.3902     -2907.5846     -2911.5759     -9.5936943      18.237283      8.2038624      10380.681    
     71000   453.50245      0.0355         0.29709627     0.29491815     0.29572313    -2920.4294      647.07759      647.07759      647.07759      2.7093747e+08  1.850494      -23056393      -23056393       1350.4528     -23055043      -2932.1122     -2910.6158     -2918.5603     -10.501973      19.122337      8.7963226      10478.157    
     72000   453.54831      0.036          0.29726364     0.2952756      0.29611332    -2923.4396      647.39004      647.39004      647.39004      2.7133014e+08  1.847816      -23040488      -23040488       1350.5894     -23039138      -2933.764      -2914.1436     -2922.4113     -10.421627      19.422034      7.4968872      10339.868    
     73000   454.14561      0.0365         0.29785889     0.29592106     0.29629924    -2928.1329      647.70248      647.70248      647.70248      2.7172318e+08  1.8451432     -23024547      -23024547       1352.3681     -23023195      -2939.6387     -2920.5138     -2924.2461     -9.408726       17.863732      5.7475084      10288.99     
     74000   454.64064      0.037          0.29855854     0.29658618     0.29652281    -2933.3581      648.01493      648.01493      648.01493      2.721166e+08   1.8424755     -23008568      -23008568       1353.8422     -23007214      -2946.5437     -2927.078      -2926.4526     -8.9220203      15.341304      6.3209866      10485.206    
     75000   454.98474      0.0375         0.29882364     0.29686226     0.29664939    -2935.5549      648.32738      648.32738      648.32738      2.725104e+08   1.839813      -22992557      -22992557       1354.8669     -22991202      -2949.16       -2929.8027     -2927.7019     -8.5424869      13.341408      8.6013363      10388.149    
     76000   455.06389      0.038          0.2989593      0.29696826     0.29678951    -2936.8108      648.63982      648.63982      648.63982      2.7290458e+08  1.8371556     -22976519      -22976519       1355.1026     -22975164      -2950.4989     -2930.8488     -2929.0847     -7.7447589      14.912386      8.7629122      10483.294    
     77000   454.21154      0.0385         0.29898811     0.29714058     0.29699907    -2938.1619      648.95227      648.95227      648.95227      2.7329914e+08  1.8345033     -22960454      -22960454       1352.5644     -22959101      -2950.7832     -2932.5496     -2931.1529     -7.402633       18.000655      5.8829369      10568.596    
     78000   453.67048      0.039          0.29861717     0.2969933      0.29684919    -2935.964       649.26472      649.26472      649.26472      2.7369408e+08  1.8318561     -22944376      -22944376       1350.9532     -22943025      -2947.1223     -2931.0959     -2929.6738     -7.5932052      17.370695      3.1344903      10423.486    
     79000   454.18519      0.0395         0.29829112     0.2966314      0.29651778    -2932.6106      649.57716      649.57716      649.57716      2.740894e+08   1.829214      -22928305      -22928305       1352.4859     -22926953      -2943.9045     -2927.5243     -2926.403      -7.9727286      14.077373      2.8229766      10298.249    
     80000   454.49704      0.04           0.29816433     0.29648204     0.2961506     -2930.4942      649.88961      649.88961      649.88961      2.7448511e+08  1.826577      -22912242      -22912242       1353.4146     -22910889      -2942.6532     -2926.0502     -2922.7792     -8.3816188      13.01642       3.867804       10502.918    
     81000   454.03925      0.0405         0.2978109      0.29643372     0.29569315    -2927.6676      650.20206      650.20206      650.20206      2.7488119e+08  1.823945      -22896177      -22896177       1352.0513     -22894825      -2939.1651     -2925.5733     -2918.2645     -7.8722074      14.49691       5.0490291      10254.001    
     82000   453.3384       0.041          0.29729363     0.29635092     0.29525542    -2924.2535      650.51451      650.51451      650.51451      2.7527765e+08  1.8213181     -22880111      -22880111       1349.9643     -22878761      -2934.06       -2924.7562     -2913.9444     -6.1568257      15.569423      5.0588209      10431.56     
     83000   452.81409      0.0415         0.29695327     0.2962396      0.29501835    -2921.9877      650.82695      650.82695      650.82695      2.756745e+08   1.8186963     -22864042      -22864042       1348.403      -22862693      -2930.7009     -2923.6576     -2911.6047     -4.1520016      15.273701      3.8884873      10377.188    
     84000   452.07455      0.042          0.29666654     0.29599205     0.29500052    -2920.1714      651.1394       651.1394       651.1394       2.7607172e+08  1.8160794     -22847966      -22847966       1346.2008     -22846620      -2927.8711     -2921.2144     -2911.4287     -2.8216142      14.573609      1.9818673      10200.999    
     85000   451.17086      0.0425         0.2962174      0.29540933     0.29464821    -2915.6179      651.45185      651.45185      651.45185      2.7646933e+08  1.8134676     -22831894      -22831894       1343.5098     -22830550      -2923.4385     -2915.4634     -2907.9517     -2.5776633      15.075622      0.85936524     10353.993    
     86000   450.65794      0.043          0.29553252     0.29471387     0.2937727     -2908.1967      651.76429      651.76429      651.76429      2.7686732e+08  1.8108608     -22815836      -22815836       1341.9824     -22814494      -2916.6792     -2908.5998     -2899.3111     -3.4149289      15.563948      1.1096268      10456.577    
     87000   450.446        0.0435         0.29476015     0.29391577     0.29284249    -2899.9701      652.07674      652.07674      652.07674      2.7726569e+08  1.808259      -22799807      -22799807       1341.3513     -22798465      -2909.0565     -2900.7231     -2890.1307     -3.6285782      14.112828      1.8892297      10411.986    
     88000   450.36766      0.044          0.29404321     0.29296268     0.29229847    -2892.6864      652.38919      652.38919      652.38919      2.7766444e+08  1.8056622     -22783808      -22783808       1341.118      -22782467      -2901.9808     -2891.3169     -2884.7616     -2.2212146      11.698043      1.3235149      10430.675    
     89000   450.07924      0.0445         0.29345105     0.29226236     0.2920308     -2887.5539      652.70163      652.70163      652.70163      2.7806357e+08  1.8030703     -22767839      -22767839       1340.2591     -22766499      -2896.1367     -2884.4053     -2882.1199     -0.75640156     11.320579     -0.85035864     10314.64     
     90000   449.20904      0.045          0.29268795     0.29187825     0.29151271    -2882.0755      653.01408      653.01408      653.01408      2.7846309e+08  1.8004834     -22751899      -22751899       1337.6678     -22750562      -2888.6055     -2880.6143     -2877.0067     -0.76291049     12.362882     -1.975236       10544.092    
     91000   447.87216      0.0455         0.29159659     0.29128235     0.29053841    -2873.3197      653.32653      653.32653      653.32653      2.7886299e+08  1.7979015     -22735976      -22735976       1333.6868     -22734642      -2877.8346     -2874.7333     -2867.3912     -1.7066882      12.380918     -2.3167356      10329.162    
     92000   446.72238      0.046          0.29056173     0.2902803      0.28916667    -2862.1061      653.63897      653.63897      653.63897      2.7926327e+08  1.7953244     -22720073      -22720073       1330.263      -22718742      -2867.6213     -2864.8438     -2853.8531     -1.3631373      11.983621     -2.3334044      10506.777    
     93000   445.95171      0.0465         0.28966643     0.28924161     0.28796316    -2851.7845      653.95142      653.95142      653.95142      2.7966394e+08  1.7927524     -22704202      -22704202       1327.968      -22702874      -2858.7853     -2854.5927     -2841.9754      0.23393882     12.67642      -2.8327875      10648.756    
     94000   445.03787      0.047          0.28889549     0.28821258     0.28729256    -2843.657       654.26387      654.26387      654.26387      2.8006498e+08  1.7901852     -22688376      -22688376       1325.2468     -22687050      -2851.1769     -2844.437      -2835.3571      0.45586935     13.704653     -4.2247851      10449.082    
     95000   444.32431      0.0475         0.28794195     0.28706253     0.28665099    -2834.6261      654.57632      654.57632      654.57632      2.8046641e+08  1.7876229     -22672603      -22672603       1323.1219     -22671280      -2841.7661     -2833.0869     -2829.0254     -0.38324133     14.621181     -4.0485208      10499.228    
     96000   444.07861      0.048          0.28672598     0.28589926     0.28569251    -2823.6459      654.88876      654.88876      654.88876      2.8086823e+08  1.7850655     -22656881      -22656881       1322.3903     -22655559      -2829.7654     -2821.6063     -2819.5659     -0.78576636     13.715959     -3.6285277      10547.544    
     97000   443.6629       0.0485         0.28537203     0.28471313     0.28454015    -2811.4987      655.20121      655.20121      655.20121      2.8127043e+08  1.782513      -22641201      -22641201       1321.1523     -22639880      -2816.4029     -2809.9001     -2808.1929     -0.12159996     11.127824     -5.8493005      10416.467    
     98000   442.56196      0.049          0.28393971     0.28365319     0.28336036    -2799.4186      655.51366      655.51366      655.51366      2.8167301e+08  1.7799653     -22625563      -22625563       1317.8739     -22624245      -2802.267      -2799.4393     -2796.5494      1.8030121      10.304934     -8.2863911      10567.432    
     99000   440.61286      0.0495         0.28247938     0.28285087     0.28215825    -2788.0204      655.8261       655.8261       655.8261       2.8207597e+08  1.7774225     -22609976      -22609976       1312.0699     -22608664      -2787.8547     -2791.521      -2784.6854      3.5365045      10.481546     -7.3824808      10514.359    
    100000   438.42942      0.05           0.28112155     0.2819239      0.2809627     -2776.571       656.13855      656.13855      656.13855      2.8247932e+08  1.7748845     -22594431      -22594431       1305.568      -22593126      -2774.454      -2782.3726     -2772.8863      3.7535653      9.6171923     -4.5345094      10310.644    
    101000   437.15693      0.0505         0.27990727     0.2806168      0.27966085    -2763.9935      656.451        656.451        656.451        2.8288306e+08  1.7723514     -22578935      -22578935       1301.7787     -22577633      -2762.47       -2769.4724     -2760.038       2.3492678      9.034492      -2.8071074      10588.609    
    102000   437.08207      0.051          0.27860936     0.27895952     0.27817342    -2749.3784      656.76344      656.76344      656.76344      2.8328718e+08  1.7698231     -22563510      -22563510       1301.5558     -22562209      -2749.6606     -2753.1164     -2745.3582      1.334282       9.0679619     -4.4111421      10675.817    
    103000   436.92605      0.0515         0.27726341     0.27721963     0.27679165    -2734.6811      657.07589      657.07589      657.07589      2.8369168e+08  1.7672996     -22548164      -22548164       1301.0912     -22546863      -2736.3771     -2735.945      -2731.7212      1.5184112      9.2754637     -8.1415165      10519.064    
    104000   435.53442      0.052          0.275988       0.27565629     0.27546234    -2720.9692      657.38834      657.38834      657.38834      2.8409657e+08  1.7647808     -22532881      -22532881       1296.9471     -22531584      -2723.7898     -2720.5161     -2718.6019      3.0676554      10.265122     -11.164459      10580.29     
    105000   433.70642      0.0525         0.27439161     0.2744504      0.27394136    -2706.7468      657.70078      657.70078      657.70078      2.8450184e+08  1.7622669     -22517657      -22517657       1291.5037     -22516365      -2708.0347     -2708.6148     -2703.591       5.0974112      11.882444     -12.376361      10362.082    
    106000   432.17365      0.053          0.2726302      0.27354427     0.27256249    -2693.4352      658.01323      658.01323      658.01323      2.849075e+08   1.7597577     -22502490      -22502490       1286.9393     -22501203      -2690.6509     -2699.672      -2689.9827      5.7719934      11.857585     -12.308385      10679.147    
    107000   430.50558      0.0535         0.27106625     0.2725056      0.27131699    -2680.7759      658.32568      658.32568      658.32568      2.8531354e+08  1.7572533     -22487377      -22487377       1281.9721     -22486095      -2675.2159     -2689.4212     -2677.6905      4.4138792      9.8391187     -10.777154      10487.4      
    108000   428.71906      0.054          0.26950222     0.27098593     0.26989592    -2665.9563      658.63813      658.63813      658.63813      2.8571997e+08  1.7547537     -22472322      -22472322       1276.6522     -22471046      -2659.7801     -2674.4232     -2663.6657      2.7409401      9.1721314     -9.2879473      10543.186    
    109000   427.44298      0.0545         0.26764385     0.26887569     0.2680531     -2646.8382      658.95057      658.95057      658.95057      2.8612679e+08  1.7522588     -22457353      -22457353       1272.8522     -22456080      -2641.4395     -2653.5967     -2645.4784      2.2370907      10.156051     -8.4326943      10509.887    
    110000   426.7424       0.055          0.26584736     0.26670466     0.26613598    -2627.4792      659.26302      659.26302      659.26302      2.8653399e+08  1.7497686     -22442480      -22442480       1270.766      -22441209      -2623.7094     -2632.1703     -2626.5579      2.5307273      10.310023     -8.9893363      10552.106    
    111000   425.42385      0.0555         0.26430595     0.26505502     0.26452937    -2611.6962      659.57547      659.57547      659.57547      2.8694158e+08  1.7472831     -22427697      -22427697       1266.8396     -22426430      -2608.497      -2615.8896     -2610.7019      2.8385606      9.4423238     -11.253488      10611.587    
    112000   423.23751      0.056          0.26261963     0.26365397     0.26288255    -2596.1219      659.88791      659.88791      659.88791      2.8734955e+08  1.7448024     -22412991      -22412991       1260.329      -22411731      -2591.8542     -2602.0624     -2594.4491      2.9395737      8.3766164     -14.368781      10480.912    
    113000   421.07548      0.0565         0.26071775     0.26209022     0.26088597    -2578.1526      660.20036      660.20036      660.20036      2.8775791e+08  1.7423263     -22398355      -22398355       1253.8909     -22397101      -2573.0842     -2586.6294     -2574.7443      3.4476137      8.9452739     -15.235276      10625.911    
    114000   419.48195      0.057          0.25878298     0.26022469     0.25888852    -2559.0795      660.51281      660.51281      660.51281      2.8816666e+08  1.7398549     -22383803      -22383803       1249.1456     -22382554      -2553.9894     -2568.218      -2555.031       3.5786254      9.6458977     -13.986995      10575.721    
    115000   418.07758      0.0575         0.25691499     0.25827844     0.25728083    -2541.2427      660.82525      660.82525      660.82525      2.8857579e+08  1.7373882     -22369344      -22369344       1244.9636     -22368099      -2535.5538     -2549.01       -2539.1644      2.9405202      9.874538      -12.738115      10208.934    
    116000   416.28668      0.058          0.25530636     0.25688056     0.25607653    -2527.3903      661.1377       661.1377       661.1377       2.8898531e+08  1.7349262     -22354965      -22354965       1239.6307     -22353726      -2519.6779     -2535.214      -2527.2789      2.964477       10.478272     -12.107834      10432.282    
    117000   414.39174      0.0585         0.25388922     0.2557402      0.25481762    -2514.8352      661.45015      661.45015      661.45015      2.8939522e+08  1.7324688     -22340649      -22340649       1233.9878     -22339415      -2505.6918     -2523.9595     -2514.8544      3.3446394      11.201346     -13.159815      10410.977    
    118000   413.33343      0.059          0.25230218     0.25417598     0.25328986    -2499.4425      661.76259      661.76259      661.76259      2.8980552e+08  1.730016      -22326389      -22326389       1230.8364     -22325158      -2490.0289     -2508.5219     -2499.7766      3.6850486      10.752354     -15.751143      10405.869    
    119000   412.70385      0.0595         0.25048375     0.25222688     0.25153943    -2481.2898      662.07504      662.07504      662.07504      2.902162e+08   1.7275679     -22312209      -22312209       1228.9616     -22310980      -2472.0824     -2489.2858     -2482.5012      3.5604513      9.8378063     -17.815186      10278.876    
    120000   411.66505      0.06           0.24857038     0.25026545     0.24955527    -2462.0153      662.38749      662.38749      662.38749      2.9062727e+08  1.7251243     -22298130      -22298130       1225.8682     -22296904      -2453.1989     -2469.9279     -2462.9191      3.0285576      8.7069419     -19.389685      10478.841    
    121000   409.90254      0.0605         0.24655193     0.24844049     0.24747672    -2442.5336      662.69994      662.69994      662.69994      2.9103873e+08  1.7226854     -22284148      -22284148       1220.6198     -22282927      -2433.2783     -2451.917      -2442.4054      2.7234723      7.2819761     -20.3645        10425.186    
    122000   407.61389      0.061          0.2445439      0.24657428     0.24549437    -2423.2669      663.01238      663.01238      663.01238      2.9145058e+08  1.7202511     -22270260      -22270260       1213.8045     -22269046      -2413.4607     -2433.4989     -2422.8411      1.8880057      6.9927322     -19.025739      10380.19     
    123000   405.18851      0.0615         0.24267362     0.24460834     0.24359086    -2404.3846      663.32483      663.32483      663.32483      2.9186281e+08  1.7178214     -22256466      -22256466       1206.5822     -22255260      -2395.0025     -2414.0966     -2404.0548      0.75787189     7.0391672     -16.939559      10361.5      
    124000   403.25566      0.062          0.24084794     0.24271861     0.24153153    -2385.3872      663.63728      663.63728      663.63728      2.9227544e+08  1.7153962     -22242769      -22242769       1200.8265     -22241568      -2376.9843     -2395.4465     -2383.7309      1.2246362      6.8662523     -16.480806      10408.287    
    125000   402.03957      0.0625         0.23901895     0.2411185      0.23965983    -2367.949       663.94972      663.94972      663.94972      2.9268845e+08  1.7129756     -22229160      -22229160       1197.2052     -22227962      -2358.9336     -2379.6546     -2365.2586      2.5601514      5.4334661     -17.835476      10331.829    
    126000   400.79711      0.063          0.23738059     0.23967922     0.23835499    -2353.5317      664.26217      664.26217      664.26217      2.9310185e+08  1.7105596     -22215620      -22215620       1193.5054     -22214426      -2342.7643     -2365.45       -2352.3808      3.0829945      3.6520777     -19.906402      10377.802    
    127000   399.30285      0.0635         0.23571281     0.23806142     0.2371661     -2338.8118      664.57462      664.57462      664.57462      2.9351564e+08  1.7081481     -22202147      -22202147       1189.0557     -22200958      -2326.3045     -2349.4835     -2340.6474      3.8221497      4.527959      -20.650666      10341.252    
    128000   397.92537      0.064          0.23385177     0.23620239     0.23567825    -2321.6791      664.88706      664.88706      664.88706      2.9392982e+08  1.7057411     -22188758      -22188758       1184.9538     -22187573      -2307.9376     -2331.1364     -2325.9635      4.7451058      7.0012152     -19.814738      10413.47     
    129000   396.40989      0.0645         0.23203535     0.23430161     0.23391089    -2303.6363      665.19951      665.19951      665.19951      2.9434439e+08  1.7033387     -22175465      -22175465       1180.441      -22174284      -2290.0108     -2312.3771     -2308.521       3.4861357      7.7970899     -18.165606      10472.695    
    130000   394.61139      0.065          0.23045087     0.23254093     0.23196693    -2286.2365      665.51196      665.51196      665.51196      2.9475935e+08  1.7009407     -22162254      -22162254       1175.0853     -22161079      -2274.3732     -2295.0006     -2289.3356      0.0099325473   6.658015      -16.872267      10347.825    
    131000   393.02441      0.0655         0.22868982     0.23086144     0.22982039    -2267.8564      665.8244       665.8244       665.8244       2.951747e+08   1.6985473     -22149131      -22149131       1170.3596     -22147960      -2256.993      -2278.4253     -2268.1509     -2.6130742      4.7195024     -16.679647      10416.509    
    132000   391.73672      0.066          0.22686178     0.22928971     0.22794265    -2250.4948      666.13685      666.13685      666.13685      2.9559044e+08  1.6961583     -22136094      -22136094       1166.525      -22134928      -2238.9517     -2262.9135     -2249.6191     -2.9686784      2.2387627     -18.390962      10346.286    
    133000   390.05772      0.0665         0.22526009     0.22781341     0.22647776    -2235.5498      666.4493       666.4493       666.4493       2.9600657e+08  1.6937738     -22123143      -22123143       1161.5253     -22121981      -2223.1442     -2248.3436     -2235.1617     -1.4635145      0.89895379    -20.885661      10588.33     
    134000   388.18771      0.067          0.22365465     0.22619051     0.22506347    -2220.2768      666.76175      666.76175      666.76175      2.9642309e+08  1.6913938     -22110267      -22110267       1155.9567     -22109111      -2207.2998     -2232.3268     -2221.2037      0.12280409     1.0568647     -22.179827      10348.278    
    135000   386.32666      0.0675         0.22194466     0.22443065     0.2236064     -2204.0685      667.07419      667.07419      667.07419      2.9684e+08     1.6890183     -22097461      -22097461       1150.4148     -22096311      -2190.4235     -2214.9583     -2206.8236     -0.0094280114   1.9920217     -21.784091      10340.258    
    136000   384.41827      0.068          0.2202081      0.22267699     0.22199931    -2187.2996      667.38664      667.38664      667.38664      2.972573e+08   1.6866472     -22084726      -22084726       1144.732      -22083581      -2173.285      -2197.651      -2190.9628     -1.4930668      2.370112      -19.703743      10271.893    
    137000   382.67893      0.0685         0.21860154     0.22107777     0.22013118    -2170.6078      667.69909      667.69909      667.69909      2.9767499e+08  1.6842805     -22072077      -22072077       1139.5525     -22070937      -2157.4295     -2181.8679     -2172.5259     -2.5655248      2.2415264     -16.976767      10447.399    
    138000   381.19414      0.069          0.21720094     0.21955024     0.21827265    -2154.8609      668.01153      668.01153      668.01153      2.9809307e+08  1.6819182     -22059517      -22059517       1135.1311     -22058382      -2143.6067     -2166.7924     -2154.1835     -1.2699753      2.0992761     -16.248166      10411.769    
    139000   379.67051      0.0695         0.21573707     0.21815242     0.21671057    -2140.3078      668.32398      668.32398      668.32398      2.9851155e+08  1.6795604     -22047030      -22047030       1130.594      -22045899      -2129.1593     -2152.997      -2138.767       0.31629864     2.1068487     -17.475842      10408.218    
    140000   378.43565      0.07           0.21398555     0.21678759     0.21541583    -2125.7964      668.63643      668.63643      668.63643      2.9893041e+08  1.677207      -22034611      -22034611       1126.9167     -22033484      -2111.8731     -2139.5272     -2125.9889     -0.33984537     2.3978568     -18.6914        10320.498    
    141000   377.58794      0.0705         0.21227907     0.21514234     0.21422709    -2110.8594      668.94887      668.94887      668.94887      2.9934967e+08  1.674858      -22022270      -22022270       1124.3924     -22021146      -2095.0316     -2123.2898     -2114.257      -0.86841381     1.5715204     -19.217665      10418.026    
    142000   376.61176      0.071          0.21093556     0.21344401     0.21306256    -2097.0216      669.26132      669.26132      669.26132      2.9976932e+08  1.6725133     -22009999      -22009999       1121.4855     -22008878      -2081.7721     -2106.5286     -2102.764      -1.2696973     -0.34286744    -19.646964      10333.928    
    143000   375.01781      0.0715         0.20978996     0.21206679     0.21169984    -2084.2391      669.57377      669.57377      669.57377      3.0018936e+08  1.6701731     -21997790      -21997790       1116.739      -21996673      -2070.4659     -2092.9365     -2089.3149     -3.457583      -1.2249806     -20.253661      10449.4      
    144000   373.24455      0.072          0.20859504     0.21086992     0.21002839    -2070.8721      669.88621      669.88621      669.88621      3.0060979e+08  1.6678371     -21985636      -21985636       1111.4585     -21984525      -2058.673      -2081.1243     -2072.8191     -5.9017175     -0.91857706    -19.487079      10349.352    
    145000   371.85605      0.0725         0.20718915     0.20948137     0.20830099    -2055.9964      670.19866      670.19866      670.19866      3.0103062e+08  1.6655056     -21973554      -21973554       1107.3238     -21972447      -2044.798      -2067.4204     -2055.7709     -6.2785659     -0.74304903    -17.624422      10228.951    
    146000   370.86065      0.073          0.20575403     0.20788563     0.20681331    -2041.1316      670.51111      670.51111      670.51111      3.0145184e+08  1.6631784     -21961549      -21961549       1104.3597     -21960445      -2030.6344     -2051.6717     -2041.0887     -5.5444896     -0.30066648    -16.968224      10303.47     
    147000   369.63299      0.0735         0.20449688     0.20648422     0.20578919    -2029.0165      670.82356      670.82356      670.82356      3.0187345e+08  1.6608555     -21949614      -21949614       1100.7039     -21948514      -2018.2272     -2037.8408     -2030.9814     -4.2002523      1.2684636     -17.576433      10353.784    
    148000   367.88499      0.074          0.20328733     0.2052896      0.20484804    -2018.0113      671.136        671.136        671.136        3.0229545e+08  1.658537      -21937733      -21937733       1095.4987     -21936638      -2006.29       -2026.0508     -2021.693      -2.1185608      1.9973786     -17.645493      10405.259    
    149000   366.05768      0.0745         0.20201059     0.20402161     0.20366367    -2005.7434      671.44845      671.44845      671.44845      3.0271785e+08  1.6562227     -21925900      -21925900       1090.0573     -21924810      -1993.6895     -2013.5367     -2010.0041     -0.41760997     1.2401807     -16.707387      10403.619    
    150000   364.69516      0.075          0.20082117     0.20264558     0.20219801    -1992.4822      671.7609       671.7609       671.7609       3.0314064e+08  1.6539128     -21914121      -21914121       1085.9999     -21913035      -1981.9508     -1999.9564     -1995.5392     -0.71587574     0.83268847    -15.890864      10177.207    
    151000   363.76025      0.0755         0.19964188     0.20141144     0.2007136     -1979.6593      672.07334      672.07334      672.07334      3.0356382e+08  1.6516072     -21902405      -21902405       1083.2159     -21901322      -1970.3122     -1987.7764     -1980.8892     -2.6429838     -0.07180174    -15.566502      10176.081    
    152000   362.64457      0.076          0.1982333      0.20043465     0.19944722    -1967.6459      672.38579      672.38579      672.38579      3.039874e+08   1.6493058     -21890755      -21890755       1079.8936     -21889675      -1956.4105     -1978.1362     -1968.391      -4.5704068     -1.8223498     -15.709523      10469.23     
    153000   361.2176       0.0765         0.19670578     0.1993407      0.19838133    -1955.5154      672.69824      672.69824      672.69824      3.0441137e+08  1.6470087     -21879172      -21879172       1075.6443     -21878097      -1941.3351     -1967.3398     -1957.8715     -5.2731655     -2.4257534     -16.783579      10199.816    
    154000   360.09711      0.077          0.19552463     0.19812035     0.19737404    -1944.3014      673.01068      673.01068      673.01068      3.0483573e+08  1.6447159     -21867647      -21867647       1072.3077     -21866575      -1929.6781     -1955.2958     -1947.9303     -5.0820657     -1.0193415     -18.213183      10346.889    
    155000   359.29805      0.0775         0.19482507     0.19699522     0.19646011    -1935.292       673.32313      673.32313      673.32313      3.0526049e+08  1.6424273     -21856162      -21856162       1069.9282     -21855092      -1922.774      -1944.1916     -1938.9106     -4.9296592      0.24468128    -18.498453      9912.9431    
    156000   358.52252      0.078          0.19418335     0.19596152     0.19569729    -1927.2709      673.63558      673.63558      673.63558      3.0568565e+08  1.640143      -21844703      -21844703       1067.6188     -21843635      -1916.4406     -1933.9899     -1931.3821     -4.5275703      1.7059611     -17.297873      10119.43     
    157000   357.75923      0.0785         0.19323405     0.19482055     0.19469291    -1917.0902      673.94802      673.94802      673.94802      3.061112e+08   1.6378629     -21833292      -21833292       1065.3459     -21832226      -1907.0718     -1922.7294     -1921.4696     -4.327782       2.9100954     -15.560754      10231.75     
    158000   356.98886      0.079          0.19197903     0.19341132     0.19339899    -1904.0689      674.26047      674.26047      674.26047      3.0653714e+08  1.6355871     -21821943      -21821943       1063.0519     -21820880      -1894.6857     -1908.8214     -1908.6996     -4.6991744      1.6452145     -13.488477      10323.74     
    159000   355.53235      0.0795         0.1906795      0.19204218     0.19224136    -1891.4813      674.57292      674.57292      674.57292      3.0696348e+08  1.6333154     -21810657      -21810657       1058.7146     -21809598      -1881.8603     -1895.309      -1897.2747     -5.5732687     -0.85634034    -11.738979      10296.399    
    160000   353.5789       0.08           0.18967584     0.19109724     0.19123558    -1881.7622      674.88537      674.88537      674.88537      3.0739021e+08  1.631048      -21799418      -21799418       1052.8976     -21798365      -1871.955      -1885.9831     -1887.3484     -4.7708716     -1.712885      -11.823712      10363.659    
    161000   351.99133      0.0805         0.18889247     0.19049385     0.1902266     -1873.8808      675.19781      675.19781      675.19781      3.0781734e+08  1.6287847     -21788213      -21788213       1048.1701     -21787164      -1864.2237     -1880.0281     -1877.3906     -2.0786548     -0.26647284    -12.87795       10256.052    
    162000   351.28512      0.081          0.18807963     0.18979528     0.18919107    -1865.502       675.51026      675.51026      675.51026      3.0824486e+08  1.6265257     -21777045      -21777045       1046.0671     -21775999      -1856.2016     -1873.1338     -1867.1706     -0.50998009     1.7866509     -14.336267      10314.309    
    163000   351.3575       0.0815         0.18714374     0.18891577     0.18824428    -1856.4151      675.82271      675.82271      675.82271      3.0867278e+08  1.6242708     -21765927      -21765927       1046.2826     -21764880      -1846.9651     -1864.4537     -1857.8266     -1.3591338      2.9933891     -15.269324      10320.784    
    164000   351.48312      0.082          0.18621395     0.18801119     0.18751604    -1847.9848      676.13515      676.13515      676.13515      3.091011e+08   1.62202       -21754854      -21754854       1046.6567     -21753807      -1837.7888     -1855.5262     -1850.6395     -3.432903       2.99286       -16.009741      10429.7      
    165000   350.95479      0.0825         0.1854043      0.18710718     0.1868844     -1840.2694      676.4476       676.4476       676.4476       3.0952981e+08  1.6197735     -21743814      -21743814       1045.0834     -21742769      -1829.7982     -1846.6043     -1844.4056     -4.9496133      2.0954537     -16.184796      10384.606    
    166000   350.01248      0.083          0.18459999     0.18605435     0.18615773    -1831.7693      676.76005      676.76005      676.76005      3.0995892e+08  1.6175311     -21732809      -21732809       1042.2774     -21731767      -1821.8602     -1836.2136     -1837.234      -5.1434895      0.91362544    -14.373749      10245.778    
    167000   348.97717      0.0835         0.18389415     0.18499609     0.18523848    -1822.9418      677.07249      677.07249      677.07249      3.1038842e+08  1.6152928     -21721847      -21721847       1039.1944     -21720808      -1814.8942     -1825.7695     -1828.1616     -5.3452244      0.96346776    -11.692008      10237.02     
    168000   347.6278       0.084          0.1833516      0.18422014     0.18405927    -1814.7249      677.38494      677.38494      677.38494      3.1081832e+08  1.6130586     -21710921      -21710921       1035.1762     -21709886      -1809.5396     -1818.1114     -1816.5237     -5.2141151      1.6017768     -9.9953684      10296.574    
    169000   346.14895      0.0845         0.18271818     0.18359748     0.1828287     -1806.5445      677.69739      677.69739      677.69739      3.1124862e+08  1.6108286     -21700026      -21700026       1030.7725     -21698995      -1803.2882     -1811.9662     -1804.379      -3.1377183      1.7408535     -9.9944715      10434.519    
    170000   345.17158      0.085          0.18177921     0.18276864     0.18188065    -1797.61        678.00983      678.00983      678.00983      3.1167932e+08  1.6086027     -21689165      -21689165       1027.862      -21688137      -1794.0213     -1803.7862     -1795.0224     -0.56667868     1.5808169     -11.632477      10350.26     
    171000   344.76021      0.0855         0.18077917     0.18181657     0.18131076    -1789.3133      678.32228      678.32228      678.32228      3.1211041e+08  1.6063808     -21678345      -21678345       1026.637      -21677318      -1784.1517     -1794.3901     -1789.3981      0.17435594     3.3198533     -13.616597      10389.349    
    172000   344.42393      0.086          0.17993205     0.18103125     0.18094999    -1782.7561      678.63473      678.63473      678.63473      3.125419e+08   1.6041631     -21667567      -21667567       1025.6357     -21666542      -1775.7913     -1786.6396     -1785.8375     -2.0235705      5.5474912     -14.606978      10371.061    
    173000   343.96286      0.0865         0.17932837     0.18051266     0.18048631    -1777.5387      678.94718      678.94718      678.94718      3.1297378e+08  1.6019494     -21656816      -21656816       1024.2627     -21655791      -1769.8334     -1781.5214     -1781.2614     -5.0021606      4.8818024     -14.467361      10365.658    
    174000   343.51713      0.087          0.17869445     0.17988889     0.17974159    -1770.9513      679.25962      679.25962      679.25962      3.1340607e+08  1.5997399     -21646086      -21646086       1022.9354     -21645063      -1763.5771     -1775.3653     -1773.9116     -6.2916319      2.449409      -13.255902      10224.977    
    175000   343.41838      0.0875         0.17793124     0.17898643     0.17890432    -1762.7173      679.57207      679.57207      679.57207      3.1383875e+08  1.5975343     -21635385      -21635385       1022.6413     -21634363      -1756.0448     -1766.4587     -1765.6484     -5.4233509      1.1397393     -10.823494      10433.853    
    176000   343.1337       0.088          0.17736505     0.17816321     0.17822165    -1755.9007      679.88452      679.88452      679.88452      3.1427183e+08  1.5953329     -21624720      -21624720       1021.7936     -21623698      -1750.4569     -1758.3342     -1758.911      -3.8570002      1.1007836     -8.8370527      10057.217    
    177000   342.07598      0.0885         0.17698544     0.17760257     0.17762678    -1750.8505      680.19696      680.19696      680.19696      3.1470531e+08  1.5931354     -21614080      -21614080       1018.6438     -21613061      -1746.7105     -1752.8011     -1753.04       -2.499453       2.1877458     -9.0906601      10304.065    
    178000   340.61438      0.089          0.1764583      0.17712216     0.17685083    -1744.9833      680.50941      680.50941      680.50941      3.1513918e+08  1.590942      -21603460      -21603460       1014.2915     -21602446      -1741.508      -1748.0598     -1745.382      -1.0186325      3.3437804     -10.761058      10474.237    
    179000   339.63326      0.0895         0.17583699     0.17649974     0.17580663    -1737.4566      680.82186      680.82186      680.82186      3.1557346e+08  1.5887527     -21592867      -21592867       1011.3699     -21591855      -1735.3762     -1741.917      -1735.0765     -0.53839882     4.0918962     -11.513195      10581.458    
    180000   339.44327      0.09           0.1751157      0.17567086     0.174749      -1728.8775      681.1343       681.1343       681.1343       3.1600813e+08  1.5865673     -21582310      -21582310       1010.8041     -21581299      -1728.2575     -1733.7366     -1724.6385     -0.91725043     4.0266789     -10.527579      10378.128    
    181000   339.47287      0.0905         0.17433463     0.17486389     0.17402913    -1721.2851      681.44675      681.44675      681.44675      3.1644321e+08  1.584386      -21571796      -21571796       1010.8922     -21570785      -1720.549      -1725.7724     -1717.534      -1.7633902      3.5447701     -9.4335474      10528.863    
    182000   338.9809       0.091          0.17363458     0.17422357     0.17366353    -1715.6729      681.7592       681.7592       681.7592       3.1687868e+08  1.5822086     -21561314      -21561314       1009.4272     -21560304      -1713.6401     -1719.4529     -1713.9258     -3.2545236      2.6790211     -10.432152      10321.401    
    183000   338.27863      0.0915         0.17301752     0.17357108     0.17331509    -1710.3501      682.07164      682.07164      682.07164      3.1731455e+08  1.5800353     -21550851      -21550851       1007.336      -21549844      -1707.5501     -1713.0134     -1710.4869     -4.6001724      1.6645933     -11.19124       10388.675    
    184000   338.23246      0.092          0.17245843     0.17300272     0.17296306    -1705.483       682.38409      682.38409      682.38409      3.1775082e+08  1.5778659     -21540407      -21540407       1007.1985     -21539400      -1702.0323     -1707.4041     -1707.0127     -4.3815788      1.7704796     -10.885566      10377.167    
    185000   338.60855      0.0925         0.17189046     0.17246316     0.17249051    -1700.285       682.69654      682.69654      682.69654      3.1818749e+08  1.5757005     -21529992      -21529992       1008.3184     -21528984      -1696.427      -1702.0791     -1702.349      -3.2744705      2.7559293     -10.458347      10310.783    
    186000   338.53724      0.093          0.1712892      0.17190185     0.17189998    -1694.5177      683.00899      683.00899      683.00899      3.1862456e+08  1.573539      -21519597      -21519597       1008.1061     -21518589      -1690.4929     -1696.5393     -1696.5209     -3.3410431      3.8211146     -10.428911      10307.956    
    187000   337.80057      0.0935         0.17064065     0.17139586     0.17128661    -1688.7018      683.32143      683.32143      683.32143      3.1906203e+08  1.5713815     -21509221      -21509221       1005.9124     -21508215      -1684.0923     -1691.5456     -1690.4674     -3.817299       4.9173567     -10.336597      10336.086    
    188000   337.10652      0.094          0.16989865     0.17075999     0.17058907    -1681.8742      683.63388      683.63388      683.63388      3.194999e+08   1.5692279     -21498874      -21498874       1003.8457     -21497870      -1676.7693     -1685.2701     -1683.5833     -2.5224677      4.8790687     -9.7472518      10247.821    
    189000   336.69419      0.0945         0.16929745     0.17010629     0.16986287    -1675.3569      683.94633      683.94633      683.94633      3.1993818e+08  1.5670783     -21488563      -21488563       1002.6178     -21487560      -1670.8359     -1678.8186     -1676.4162     -0.76985669     3.491847      -8.9840947      10264.962    
    190000   336.03467      0.095          0.16908903     0.16957957     0.16917336    -1670.6702      684.25877      684.25877      684.25877      3.2037685e+08  1.5649326     -21478277      -21478277       1000.6539     -21477276      -1668.779      -1673.6202     -1669.6113     -0.85911854     2.526565      -9.1263514      10377.989    
    191000   335.249        0.0955         0.16914863     0.16922149     0.16853923    -1667.6021      684.57122      684.57122      684.57122      3.2081592e+08  1.5627908     -21467993      -21467993       998.31427     -21466995      -1669.3671     -1670.0862     -1663.3529     -1.8877766      2.680168      -9.2678622      10263.297    
    192000   334.86187      0.096          0.16904813     0.16887828     0.16785084    -1663.8778      684.88367      684.88367      684.88367      3.2125539e+08  1.5606529     -21457717      -21457717       997.16147     -21456720      -1668.3754     -1666.6991     -1656.559      -2.8585421      3.1481362     -8.5587803      10498.354    
    193000   335.08229      0.0965         0.1682928      0.16833246     0.16724436    -1657.6022      685.19611      685.19611      685.19611      3.2169527e+08  1.558519      -21447468      -21447468       997.81785     -21446470      -1660.9208     -1661.3122     -1650.5735     -3.4626754      2.9462698     -8.2975706      10316.265    
    194000   335.27287      0.097          0.1670881      0.16759037     0.16684899    -1649.8971      685.50856      685.50856      685.50856      3.2213555e+08  1.5563889     -21437262      -21437262       998.38535     -21436263      -1649.0314     -1653.9883     -1646.6715     -3.4908619      1.9717523     -9.1548025      10344.806    
    195000   334.96432      0.0975         0.16605075     0.16682306     0.16661391    -1643.1868      685.82101      685.82101      685.82101      3.2257622e+08  1.5542627     -21427087      -21427087       997.46655     -21426089      -1638.7935     -1646.4156     -1644.3515     -3.1790246      1.7047477     -10.441097      10362.795    
    196000   334.36652      0.098          0.16546352     0.16620769     0.16621559    -1637.9202      686.13346      686.13346      686.13346      3.230173e+08   1.5521403     -21416934      -21416934       995.6864      -21415938      -1632.998      -1640.3424     -1640.4204     -3.4722671      2.4495654     -10.730917      10144.892    
    197000   333.90342      0.0985         0.16512863     0.16577815     0.16564382    -1633.5245      686.4459       686.4459       686.4459       3.2345878e+08  1.5500218     -21406793      -21406793       994.30735     -21405799      -1629.6929     -1636.1032     -1634.7774     -3.9698272      3.530934      -9.6718936      10313.985    
    198000   333.84326      0.099          0.16480826     0.16538904     0.16503487    -1629.1872      686.75835      686.75835      686.75835      3.2390067e+08  1.5479072     -21396669      -21396669       994.12821     -21395675      -1626.5311     -1632.2629     -1628.7676     -3.0555053      4.6977627     -7.9649119      10297.19     
    199000   333.90438      0.0995         0.16455141     0.16495733     0.16449957    -1625.161       687.0708       687.0708       687.0708       3.2434295e+08  1.5457964     -21386572      -21386572       994.31024     -21385578      -1623.9962     -1628.0023     -1623.4846     -1.1699511      5.4285551     -7.1912183      10500.013    
    200000   333.44899      0.1            0.16436155     0.16451301     0.16410366    -1621.7722      687.38324      687.38324      687.38324      3.2478564e+08  1.5436895     -21376496      -21376496       992.95414     -21375503      -1622.1224     -1623.6171     -1619.5772     -0.15752637     5.3218936     -7.9581054      10059.237    
    201000   332.7809       0.1005         0.16405961     0.16396815     0.16355794    -1617.1912      687.69569      687.69569      687.69569      3.2522873e+08  1.5415864     -21366427      -21366427       990.96468     -21365436      -1619.1425     -1618.2399     -1614.1913     -0.83130257     4.4418723     -8.3530398      10333.04     
    202000   332.38233      0.101          0.16360679     0.16345922     0.16275793    -1611.3955      688.00814      688.00814      688.00814      3.2567223e+08  1.5394871     -21356368      -21356368       989.77783     -21355378      -1614.6735     -1613.2171     -1606.2959     -2.5922421      3.4447106     -7.8329861      10221.38     
    203000   332.32402      0.1015         0.16304671     0.16303644     0.16213297    -1606.1062      688.32058      688.32058      688.32058      3.2611612e+08  1.5373916     -21346330      -21346330       989.6042      -21345341      -1609.1459     -1609.0446     -1600.128      -3.0625675      2.9504264     -8.0703172      10312.886    
    204000   332.48556      0.102          0.16244256     0.1626213      0.16192224    -1602.0597      688.63303      688.63303      688.63303      3.2656042e+08  1.5352999     -21336320      -21336320       990.08522     -21335330      -1603.1834     -1604.9474     -1598.0482     -2.3759138      3.0716701     -8.6629888      10290.595    
    205000   332.46552      0.1025         0.16176515     0.16220613     0.16179849    -1598.0583      688.94548      688.94548      688.94548      3.2700513e+08  1.533212      -21326334      -21326334       990.02554     -21325344      -1596.4979     -1600.85       -1596.827      -2.2282428      2.5281444     -8.6639912      10391.781    
    206000   332.11655      0.103          0.16107956     0.16173494     0.16139699    -1592.932       689.25792      689.25792      689.25792      3.2745023e+08  1.5311279     -21316369      -21316369       988.98637     -21315380      -1589.7316     -1596.1998     -1592.8645     -2.7202268      1.857803      -8.5623095      10194.712    
    207000   331.89621      0.1035         0.16057117     0.16103244     0.16074318    -1586.7976      689.57037      689.57037      689.57037      3.2789574e+08  1.5290475     -21306426      -21306426       988.33023     -21305438      -1584.7143     -1589.2667     -1586.4119     -3.3038634      1.8792698     -8.5257678      10215.462    
    208000   332.15887      0.104          0.16024056     0.16027962     0.16008214    -1581.0587      689.88282      689.88282      689.88282      3.2834166e+08  1.526971      -21296510      -21296510       989.11239     -21295521      -1581.4514     -1581.8368     -1579.8879     -3.2040149      1.6168414     -8.6692749      9980.83      
    209000   332.33201      0.1045         0.16007016     0.15984916     0.15962594    -1577.5813      690.19527      690.19527      690.19527      3.2878798e+08  1.5248982     -21286613      -21286613       989.62798     -21285624      -1579.7697     -1577.5885     -1575.3855     -2.5480252      1.1011374     -8.9242924      10298.846    
    210000   332.11408      0.105          0.15983113     0.15974486     0.15926558    -1575.2663      690.50771      690.50771      690.50771      3.292347e+08   1.5228291     -21276722      -21276722       988.97901     -21275733      -1577.4106     -1576.5592     -1571.8291     -2.1478972      2.3952854     -9.0969721      10227.025    
    211000   331.98833      0.1055         0.15933002     0.15952208     0.15889919    -1571.6796      690.82016      690.82016      690.82016      3.2968183e+08  1.5207638     -21266840      -21266840       988.60456     -21265851      -1572.4651     -1574.3605     -1568.2131     -2.9749021      4.6477201     -8.474528       10404.17     
    212000   331.93496      0.106          0.15862229     0.15908954     0.1584345     -1566.3996      691.13261      691.13261      691.13261      3.3012936e+08  1.5187022     -21256980      -21256980       988.44563     -21255991      -1565.4803     -1570.0917     -1563.6269     -3.0066826      5.1270126     -8.0916779      10295.323    
    213000   331.32562      0.1065         0.15808131     0.15862981     0.15785978    -1561.2169      691.44505      691.44505      691.44505      3.3057729e+08  1.5166443     -21247144      -21247144       986.63111     -21246157      -1560.1413     -1565.5545     -1557.9549     -1.5907605      2.8671658     -8.5696312      10307.697    
    214000   330.48655      0.107          0.15766443     0.15814527     0.15714946    -1555.9146      691.7575       691.7575       691.7575       3.3102564e+08  1.5145902     -21237331      -21237331       984.1325      -21236346      -1556.0269     -1560.7724     -1550.9446     -1.1186471      1.6981516     -8.7599269      10186        
    215000   330.04341      0.1075         0.15721557     0.15754022     0.15664516    -1550.7885      692.06995      692.06995      692.06995      3.3147438e+08  1.5125397     -21227536      -21227536       982.81291     -21226553      -1551.5971     -1554.8011     -1545.9675     -2.5905831      2.850396      -7.7845198      10285.663    
    216000   330.02698      0.108          0.15671689     0.15689572     0.15644487    -1546.3689      692.38239      692.38239      692.38239      3.3192354e+08  1.510493      -21217757      -21217757       982.764       -21216774      -1546.6754     -1548.4403     -1543.9908     -3.3845911      3.9642634     -6.3912623      10210.307    
    217000   330.32412      0.1085         0.15631124     0.15640997     0.15628477    -1542.9097      692.69484      692.69484      692.69484      3.3237309e+08  1.50845       -21207996      -21207996       983.64881     -21207013      -1542.6719     -1543.6464     -1542.4108     -2.4592547      3.7728029     -6.1238579      10221.258    
[...]
   3137000   325.68879      1.5685         0.0097653209   0.0097640932   0.0094804401  -95.435         1605.0399      1605.0399      1605.0399      4.1348283e+09  0.1212549     -6390683.6     -6390683.6      969.8456      -6389713.8     -96.376224     -96.364107     -93.564669     -0.038822763    1.3124688      0.73147553     11181.542    
   3138000   325.62311      1.569          0.0097606039   0.009756743    0.0094741042  -95.374459      1605.3523      1605.3523      1605.3523      4.1372435e+09  0.12118411    -6387487.9     -6387487.9      969.65        -6386518.3     -96.329671     -96.291566     -93.502138     -0.04133404     1.3216142      0.74438177     11187.798    
   3139000   325.52373      1.5695         0.0097519234   0.009744267    0.0094636146  -95.270351      1605.6648      1605.6648      1605.6648      4.1396596e+09  0.12111338    -6384293.6     -6384293.6      969.35408     -6383324.3     -96.244001     -96.168438     -93.398614     -0.062703218    1.3297554      0.7544336      11216.66     
   3140000   325.42349      1.57           0.0097412759   0.0097302361   0.0094515705  -95.149543      1605.9772      1605.9772      1605.9772      4.1420767e+09  0.12104271    -6381102       -6381102        969.05558     -6380132.9     -96.138918     -96.029964     -93.279748     -0.091292959    1.3346657      0.75307728     11306.237    
   3141000   325.34155      1.5705         0.0097298229   0.0097166764   0.009440542   -95.030977      1606.2897      1606.2897      1606.2897      4.1444947e+09  0.12097209    -6377913.1     -6377913.1      968.81157     -6376944.3     -96.025886     -95.89614      -93.170906     -0.10335796     1.339157       0.74961895     11164.581    
   3142000   325.282        1.571          0.0097180836   0.0097045163   0.0094313333  -94.92206       1606.6021      1606.6021      1606.6021      4.1469137e+09  0.12090152    -6374726.7     -6374726.7      968.63424     -6373758.1     -95.910029     -95.776129     -93.080023     -0.099051891    1.3519802      0.74709152     11215.624    
   3143000   325.25197      1.5715         0.0097080315   0.0096956925   0.0094238264  -94.835267      1606.9146      1606.9146      1606.9146      4.1493336e+09  0.12083101    -6371542.5     -6371542.5      968.54482     -6370574       -95.810821     -95.689045     -93.005935     -0.096341923    1.3736806      0.74082531     11109.235    
   3144000   325.25374      1.572          0.0097006113   0.0096903966   0.0094180075  -94.774292      1607.227       1607.227       1607.227       4.1517544e+09  0.12076056    -6368359.5     -6368359.5      968.55009     -6367390.9     -95.73759      -95.636779     -92.948507     -0.095670733    1.3883972      0.72805435     11270.017    
   3145000   325.27633      1.5725         0.0096952599   0.0096877255   0.009413481   -94.733009      1607.5394      1607.5394      1607.5394      4.1541762e+09  0.12069016    -6365177       -6365177        968.61736     -6364208.4     -95.684776     -95.610417     -92.903834     -0.099044261    1.386812       0.70899311     11098.392    
   3146000   325.29982      1.573          0.0096906331   0.0096872594   0.0094086594  -94.700392      1607.8519      1607.8519      1607.8519      4.156599e+09   0.12061981    -6361994.5     -6361994.5      968.68732     -6361025.8     -95.639112     -95.605817     -92.856249     -0.11068959     1.3701853      0.6946611      11174.494    
   3147000   325.32772      1.5735         0.0096849894   0.0096863165   0.009399902   -94.649915      1608.1643      1608.1643      1608.1643      4.1590226e+09  0.12054952    -6358812       -6358812        968.77038     -6357843.2     -95.583414     -95.596511     -92.76982      -0.11980818     1.3519069      0.69415123     11134.576    
   3148000   325.37065      1.574          0.0096783151   0.0096820584   0.0093879605  -94.574666      1608.4768      1608.4768      1608.4768      4.1614472e+09  0.12047928    -6355630.7     -6355630.7      968.89824     -6354661.8     -95.517544     -95.554487     -92.651966     -0.11920066     1.3427567      0.70083364     11169.158    
   3149000   325.40122      1.5745         0.0096732295   0.0096736942   0.0093764729  -94.492628      1608.7892      1608.7892      1608.7892      4.1638728e+09  0.1204091     -6352451       -6352451        968.98927     -6351482       -95.467352     -95.471939     -92.538593     -0.11550727     1.3375922      0.70627038     11214.739    
   3150000   325.39925      1.575          0.0096694713   0.0096628436   0.0093677535  -94.415884      1609.1017      1609.1017      1609.1017      4.1662993e+09  0.12033897    -6349272.7     -6349272.7      968.9834      -6348303.7     -95.430262     -95.364852     -92.452538     -0.11986808     1.3310396      0.70726159     10876.972    
   3151000   325.381        1.5755         0.0096633839   0.0096514335   0.009361858   -94.338927      1609.4141      1609.4141      1609.4141      4.1687267e+09  0.1202689     -6346095.7     -6346095.7      968.92907     -6345126.8     -95.370184     -95.252243     -92.394355     -0.13181276     1.3237173      0.70377126     11281.615    
   3152000   325.37896      1.576          0.009654681    0.0096408524   0.0093588753  -94.265675      1609.7266      1609.7266      1609.7266      4.1711551e+09  0.12019888    -6342920.2     -6342920.2      968.92297     -6341951.2     -95.284293     -95.147815     -92.364918     -0.15977774     1.3259867      0.69691033     11128.983    
   3153000   325.40332      1.5765         0.0096466338   0.0096331569   0.0093588945  -94.213949      1610.039       1610.039       1610.039       4.1735845e+09  0.12012892    -6339745.7     -6339745.7      968.99552     -6338776.7     -95.204873     -95.071867     -92.365107     -0.19581553     1.3372876      0.68123255     11290.138    
   3154000   325.44269      1.577          0.0096413898   0.0096277243   0.0093606271  -94.184526      1610.3515      1610.3515      1610.3515      4.1760147e+09  0.12005901    -6336571.5     -6336571.5      969.11275     -6335602.4     -95.15312      -95.018251     -92.382207     -0.21767336     1.3538702      0.66075147     11168.798    
   3155000   325.48024      1.5775         0.0096371585   0.0096216426   0.0093601559  -94.149049      1610.6639      1610.6639      1610.6639      4.1784459e+09  0.11998915    -6333396.9     -6333396.9      969.22458     -6332427.6     -95.11136      -94.95823      -92.377557     -0.2182991      1.3709184      0.64739642     11236.942    
   3156000   325.5123       1.578          0.0096312857   0.0096143421   0.009354836   -94.088211      1610.9764      1610.9764      1610.9764      4.1808781e+09  0.11991935    -6330222.7     -6330222.7      969.32004     -6329253.4     -95.053399     -94.886179     -92.325053     -0.20368178     1.3825548      0.65031264     11307.326    
   3157000   325.53008      1.5785         0.0096234857   0.0096073982   0.009345466   -94.008882      1611.2888      1611.2888      1611.2888      4.1833112e+09  0.1198496     -6327049.9     -6327049.9      969.37299     -6326080.6     -94.976419     -94.817648     -92.232578     -0.18207453     1.3835508      0.65907895     11187.259    
   3158000   325.52385      1.579          0.009614059    0.0096008735   0.0093352718  -93.92287       1611.6013      1611.6013      1611.6013      4.1857452e+09  0.11977991    -6323878.8     -6323878.8      969.35443     -6322909.4     -94.883385     -94.753255     -92.13197      -0.16088657     1.3727146      0.6568505      11239.086    
   3159000   325.51415      1.5795         0.009603452    0.0095938412   0.0093278477  -93.840418      1611.9137      1611.9137      1611.9137      4.1881802e+09  0.11971027    -6320709.4     -6320709.4      969.32554     -6319740.1     -94.778702     -94.683851     -92.058699     -0.15155597     1.3450095      0.64381454     11114.423    
   3160000   325.53708      1.58           0.0095937577   0.0095863576   0.0093228451  -93.767449      1612.2262      1612.2262      1612.2262      4.1906162e+09  0.11964068    -6317541.6     -6317541.6      969.39382     -6316572.2     -94.683026     -94.609993     -92.009328     -0.15338562     1.3106169      0.62975779     11201.552    
   3161000   325.609        1.5805         0.0095876203   0.0095795311   0.0093183397  -93.70998       1612.5386      1612.5386      1612.5386      4.193053e+09   0.11957115    -6314375.1     -6314375.1      969.60801     -6313405.5     -94.622455     -94.542621     -91.964862     -0.16517039     1.2840662      0.61907191     11091.814    
   3162000   325.70155      1.581          0.0095852514   0.0095740564   0.0093146096  -93.671905      1612.851       1612.851       1612.851       4.1954909e+09  0.11950167    -6311209.3     -6311209.3      969.8836      -6310239.4     -94.599076     -94.48859      -91.92805      -0.18056969     1.2681358      0.61775542     11140.493    
   3163000   325.7636       1.5815         0.0095842676   0.0095698025   0.0093108166  -93.642197      1613.1635      1613.1635      1613.1635      4.1979296e+09  0.11943225    -6308043.4     -6308043.4      970.06838     -6307073.3     -94.589366     -94.446607     -91.890616     -0.18843012     1.2684553      0.63644322     11109.948    
   3164000   325.7726       1.582          0.0095808122   0.0095656884   0.0093062151  -93.602157      1613.4759      1613.4759      1613.4759      4.2003693e+09  0.11936288    -6304877.3     -6304877.3      970.09516     -6303907.2     -94.555264     -94.406004     -91.845202     -0.17945004     1.2858947      0.67127202     11187.309    
   3165000   325.75119      1.5825         0.009573071    0.0095600954   0.0092988529  -93.534071      1613.7884      1613.7884      1613.7884      4.20281e+09    0.11929356    -6301711.8     -6301711.8      970.03142     -6300741.7     -94.478865     -94.350806     -91.772542     -0.15753153     1.3082786      0.69952355     11135.307    
   3166000   325.72774      1.583          0.0095630757   0.0095530142   0.0092884377  -93.443631      1614.1008      1614.1008      1614.1008      4.2052516e+09  0.1192243     -6298547.8     -6298547.8      969.96159     -6297577.8     -94.380219     -94.28092      -91.669752     -0.14619155     1.3230678      0.70092398     11194.32     
   3167000   325.69933      1.5835         0.0095524496   0.0095445462   0.009276312   -93.340926      1614.4133      1614.4133      1614.4133      4.2076941e+09  0.11915509    -6295385.9     -6295385.9      969.87698     -6294416.1     -94.275348     -94.197347     -91.550081     -0.1522928      1.3297545      0.67500176     11150.993    
   3168000   325.65757      1.584          0.0095423688   0.0095347109   0.0092648626  -93.237741      1614.7257      1614.7257      1614.7257      4.2101376e+09  0.11908593    -6292226.4     -6292226.4      969.75264     -6291256.7     -94.175858     -94.10028      -91.437085     -0.16082244     1.3316403      0.64838899     11118.026    
   3169000   325.60021      1.5845         0.0095328721   0.0095248241   0.0092562646  -93.145689      1615.0382      1615.0382      1615.0382      4.2125821e+09  0.11901683    -6289069.1     -6289069.1      969.58182     -6288099.5     -94.082133     -94.002705     -91.352229     -0.15438551     1.3292384      0.65327531     11146.63     
   3170000   325.53933      1.585          0.0095228067   0.009515164    0.0092499287  -93.059954      1615.3506      1615.3506      1615.3506      4.2150275e+09  0.11894778    -6285913.4     -6285913.4      969.40054     -6284944       -93.982795     -93.907368     -91.289698     -0.13475386     1.3260571      0.68494373     11074.243    
   3171000   325.48409      1.5855         0.0095149039   0.0095069721   0.009244587   -92.989433      1615.6631      1615.6631      1615.6631      4.2174738e+09  0.11887879    -6282759.2     -6282759.2      969.23603     -6281789.9     -93.904801     -93.82652      -91.23698      -0.11729422     1.3252942      0.71242498     11160.352    
   3172000   325.43793      1.586          0.0095114865   0.0095008166   0.0092379067  -92.935965      1615.9755      1615.9755      1615.9755      4.2199211e+09  0.11880985    -6279605.7     -6279605.7      969.0986      -6278636.6     -93.871073     -93.76577      -91.171051     -0.11650397     1.332755       0.70885094     11102.205    
   3173000   325.40572      1.5865         0.0095108141   0.0094947828   0.0092284782  -92.882885      1616.288       1616.288       1616.288       4.2223693e+09  0.11874096    -6276452.7     -6276452.7      969.00266     -6275483.7     -93.864437     -93.706221     -91.077999     -0.13961436     1.3513138      0.67617905     11182.868    
   3174000   325.38808      1.587          0.009508556    0.0094877964   0.0092191103  -92.821656      1616.6004      1616.6004      1616.6004      4.2248185e+09  0.11867212    -6273300.5     -6273300.5      968.95013     -6272331.6     -93.842152     -93.637271     -90.985544     -0.17499185     1.3805788      0.64368672     11036.572    
   3175000   325.37349      1.5875         0.0095026369   0.0094824821   0.0092134214  -92.765986      1616.9129      1616.9129      1616.9129      4.2272686e+09  0.11860334    -6270149.1     -6270149.1      968.9067      -6269180.2     -93.783735     -93.584822     -90.9294       -0.19915408     1.4040775      0.62547223     11116.34     
   3176000   325.3473       1.588          0.0094924008   0.0094791825   0.0092094236  -92.708305      1617.2253      1617.2253      1617.2253      4.2297196e+09  0.11853461    -6266998       -6266998        968.8287      -6266029.2     -93.682712     -93.552257     -90.889944     -0.20300348     1.4058899      0.62253112     10973.212    
   3177000   325.30046      1.5885         0.0094808385   0.0094749271   0.0092039333  -92.638207      1617.5377      1617.5377      1617.5377      4.2321717e+09  0.11846594    -6263847.9     -6263847.9      968.68923     -6262879.3     -93.568601     -93.51026      -90.835759     -0.192176       1.3913273      0.63412079     11038.544    
   3178000   325.23022      1.589          0.0094714063   0.0094670388   0.0091967033  -92.557442      1617.8502      1617.8502      1617.8502      4.2346246e+09  0.11839731    -6260699.1     -6260699.1      968.48005     -6259730.6     -93.475513     -93.432408     -90.764405     -0.16404119     1.3733074      0.65385721     11019.914    
   3179000   325.15421      1.5895         0.0094634045   0.0094566227   0.0091893287  -92.472591      1618.1626      1618.1626      1618.1626      4.2370785e+09  0.11832874    -6257551.7     -6257551.7      968.25372     -6256583.5     -93.396541     -93.329609     -90.691623     -0.12880529     1.3655139      0.6790469      11012.973    
   3180000   325.09135      1.59           0.0094544043   0.0094473813   0.0091819431  -92.388284      1618.4751      1618.4751      1618.4751      4.2395334e+09  0.11826023    -6254405.9     -6254405.9      968.06652     -6253437.8     -93.307715     -93.238404     -90.618733     -0.10867971     1.3691869      0.70277162     10987.795    
   3181000   325.0505       1.5905         0.0094442521   0.0094410293   0.0091746901  -92.310129      1618.7875      1618.7875      1618.7875      4.2419892e+09  0.11819176    -6251261.7     -6251261.7      967.94489     -6250293.8     -93.207521     -93.175714     -90.547151     -0.11014836     1.3744003      0.71528239     11075.056    
   3182000   325.03468      1.591          0.0094348894   0.0094346407   0.0091678409  -92.235779      1619.1         1619.1         1619.1         4.2444459e+09  0.11812335    -6248118.7     -6248118.7      967.89778     -6247150.8     -93.115119     -93.112664     -90.479555     -0.12517162     1.3751371      0.70842836     11131.802    
   3183000   325.05643      1.5915         0.0094272017   0.0094250892   0.0091625248  -92.161578      1619.4124      1619.4124      1619.4124      4.2469036e+09  0.11805499    -6244977       -6244977        967.96256     -6244009       -93.039247     -93.018398     -90.427089     -0.14717142     1.3808168      0.68322243     11183.202    
   3184000   325.11282      1.592          0.0094227485   0.0094147601   0.0091593927  -92.102644      1619.7249      1619.7249      1619.7249      4.2493623e+09  0.11798669    -6241836.9     -6241836.9      968.13046     -6240868.7     -92.995298     -92.916458     -90.396177     -0.17154875     1.3937095      0.65370655     11115.652    
   3185000   325.16949      1.5925         0.0094228082   0.0094071177   0.0091573278  -92.070906      1620.0373      1620.0373      1620.0373      4.2518219e+09  0.11791843    -6238697.2     -6238697.2      968.2992      -6237728.9     -92.995887     -92.841033     -90.375799     -0.19314545     1.4004626      0.63356567     10980.821    
   3186000   325.20801      1.593          0.0094249742   0.0094008032   0.0091532991  -92.044005      1620.3498      1620.3498      1620.3498      4.2542824e+09  0.11785023    -6235557.1     -6235557.1      968.41393     -6234588.7     -93.017264     -92.778714     -90.336038     -0.20089677     1.3985066      0.63589309     11048.927    
   3187000   325.25357      1.5935         0.0094243497   0.0093925372   0.0091457992  -91.990085      1620.6622      1620.6622      1620.6622      4.2567439e+09  0.11778209    -6232417.2     -6232417.2      968.54959     -6231448.7     -93.0111       -92.697135     -90.26202      -0.19196787     1.3909353      0.65797675     10982.581    
   3188000   325.32156      1.594          0.0094191965   0.0093833159   0.0091368274  -91.913282      1620.9747      1620.9747      1620.9747      4.2592064e+09  0.11771399    -6229278.7     -6229278.7      968.75204     -6228309.9     -92.960241     -92.606128     -90.173475     -0.17183119     1.3786609      0.67379165     11002.089    
   3189000   325.39574      1.5945         0.0094111288   0.0093760317   0.0091271322  -91.830883      1621.2871      1621.2871      1621.2871      4.2616697e+09  0.11764595    -6226141.9     -6226141.9      968.97294     -6225172.9     -92.88062      -92.534239     -90.077791     -0.14263979     1.3601558      0.66716232     10995.676    
   3190000   325.45904      1.595          0.0094031209   0.0093722668   0.0091188748  -91.764989      1621.5996      1621.5996      1621.5996      4.2641341e+09  0.11757796    -6223006.9     -6223006.9      969.16146     -6222037.7     -92.801588     -92.497082     -89.996297     -0.12288077     1.3456625      0.64925974     10972.89     
   3191000   325.4961       1.5955         0.0093965608   0.0093714725   0.0091151254  -91.72846       1621.912       1621.912       1621.912       4.2665994e+09  0.11751002    -6219872.4     -6219872.4      969.27181     -6218903.1     -92.736845     -92.489242     -89.959293     -0.12385767     1.3355018      0.63141933     11003.183    
   3192000   325.51106      1.596          0.0093892978   0.0093688207   0.0091132018  -91.689515      1622.2245      1622.2245      1622.2245      4.2690656e+09  0.11744213    -6216737.7     -6216737.7      969.31635     -6215768.4     -92.665164     -92.463071     -89.940309     -0.13273706     1.3245103      0.62930112     10986.587    
   3193000   325.5197       1.5965         0.009381725    0.0093632218   0.0091110646  -91.639152      1622.5369      1622.5369      1622.5369      4.2715328e+09  0.1173743     -6213603.6     -6213603.6      969.34209     -6212634.3     -92.590426     -92.407815     -89.919216     -0.13181887     1.3148224      0.64877324     11080.64     
   3194000   325.52462      1.597          0.0093764117   0.0093572829   0.00910898    -91.595278      1622.8493      1622.8493      1622.8493      4.274001e+09   0.11730652    