LAMMPS (23 Jun 2022 - Update 1)
OMP_NUM_THREADS environment is not set. Defaulting to 1 thread. (src/comm.cpp:98)
  using 1 OpenMP thread(s) per MPI task
###

# Read restart info
read_restart ${read_res}
read_restart ./trial7/8020/equpmf71.res
Reading restart file ...
  restart file = 23 Jun 2022, LAMMPS = 23 Jun 2022
  restoring atom style atomic from restart
  orthogonal box = (1716.7954 1716.7954 1716.7954) to (2283.2046 2283.2046 2283.2046)
  1 by 2 by 2 MPI processor grid
  restoring pair style table from restart
  1000 atoms
  read_restart CPU = 0.073 seconds

# Settings
pair_style table/pgn spline 10941
pair_coeff 1 1 N20e.txt DE_GNP 308 72.9   # 1.35 * r
pair_coeff 2 2 N100e.txt DE_GNP 473.9 111.78
WARNING: 20 of 10941 force values in table DE_GNP are inconsistent with -dE/dr.
WARNING:  Should only be flagged at inflection points (src/pair_table_pgn.cpp:478)
pair_coeff 1 2 mixed_potentiale.txt DE_GNP 391.2 92.95
WARNING: 1564 of 10941 force values in table DE_GNP are inconsistent with -dE/dr.
WARNING:  Should only be flagged at inflection points (src/pair_table_pgn.cpp:478)

# Neighbor list
neighbor 2.0 bin
neigh_modify delay 0 every 1 check no once yes

# Temperature
variable T equal ${Temp}
variable T equal 300

# Deformation
reset_timestep 0
variable tmp equal "lx"
variable L0 equal ${tmp}
variable L0 equal 566.40915272269
variable strain equal "(lx - v_L0)/v_L0"
variable stp equal "step"
variable tmpe equal "temp"
variable p1 equal "v_strain"
variable p2 equal "-pxx*1.01325/10000"
variable p3 equal "-pyy*1.01325/10000"
variable p4 equal "-pzz*1.01325/10000"
variable p5 equal "lx"
variable p6 equal "ly"
variable p7 equal "lz"
variable p8 equal "press"
variable p9 equal "epair"
variable p10 equal "etotal"

# Thermo
thermo_style custom step temp v_p1 v_p2 v_p3 v_p4 press lx ly lz vol density epair pe ke etotal pxx pyy pzz pxy pxz pyz spcpu
thermo ${ts_save}
thermo 1000

# Dump
# dump 1 all custom 2000 ./${N20}${N100}/tensile/trajectory/trajectory_${usic}_${trial}_*.tensile.custom id type x y z ix iy iz
# dump_modify 1 sort id
dump 2 all cfg 50000 ./trial${trial}/${N20}${N100}/tensile/trajectory/dumpten.tens_${usic}_${trial}_*.cfg mass type xs ys zs fx fy fz
dump 2 all cfg 50000 ./trial7/${N20}${N100}/tensile/trajectory/dumpten.tens_${usic}_${trial}_*.cfg mass type xs ys zs fx fy fz
dump 2 all cfg 50000 ./trial7/80${N100}/tensile/trajectory/dumpten.tens_${usic}_${trial}_*.cfg mass type xs ys zs fx fy fz
dump 2 all cfg 50000 ./trial7/8020/tensile/trajectory/dumpten.tens_${usic}_${trial}_*.cfg mass type xs ys zs fx fy fz
dump 2 all cfg 50000 ./trial7/8020/tensile/trajectory/dumpten.tens_1_${trial}_*.cfg mass type xs ys zs fx fy fz
dump 2 all cfg 50000 ./trial7/8020/tensile/trajectory/dumpten.tens_1_7_*.cfg mass type xs ys zs fx fy fz
dump_modify 2 element N20 N100

fix 1 all nvt temp ${T} ${T} 100
fix 1 all nvt temp 300 ${T} 100
fix 1 all nvt temp 300 300 100
fix 2 all deform 1 x erate ${strain_rate} y erate ${strain_rate} z erate ${strain_rate} units box
fix 2 all deform 1 x erate 5e-6 y erate ${strain_rate} z erate ${strain_rate} units box
fix 2 all deform 1 x erate 5e-6 y erate 5e-6 z erate ${strain_rate} units box
fix 2 all deform 1 x erate 5e-6 y erate 5e-6 z erate 5e-6 units box
fix             def1 all print ${ts_save} "${p1} ${p2} ${p3} ${p4}" file ./tensile/${trial}/tensile${N20}${N100}_${usic}_${trial}.txt screen no
fix             def1 all print 1000 "${p1} ${p2} ${p3} ${p4}" file ./tensile/${trial}/tensile${N20}${N100}_${usic}_${trial}.txt screen no
fix             def1 all print 1000 "${p1} ${p2} ${p3} ${p4}" file ./tensile/7/tensile${N20}${N100}_${usic}_${trial}.txt screen no
fix             def1 all print 1000 "${p1} ${p2} ${p3} ${p4}" file ./tensile/7/tensile80${N100}_${usic}_${trial}.txt screen no
fix             def1 all print 1000 "${p1} ${p2} ${p3} ${p4}" file ./tensile/7/tensile8020_${usic}_${trial}.txt screen no
fix             def1 all print 1000 "${p1} ${p2} ${p3} ${p4}" file ./tensile/7/tensile8020_1_${trial}.txt screen no
fix             def1 all print 1000 "${p1} ${p2} ${p3} ${p4}" file ./tensile/7/tensile8020_1_7.txt screen no

timestep       		${ts}
timestep       		0.1
run				${steps_tensile}
run				6000000
Generated 0 of 1 mixed pair_coeff terms from geometric mixing rule
Unused restart file global fix info:
  fix style: npt, fix ID: 5
Neighbor list info ...
  update every 1 steps, delay 0 steps, check no
  max neighbors/atom: 2000, page size: 100000
  master list distance cutoff = 113.78
  ghost atom cutoff = 113.78
  binsize = 56.89, bins = 10 10 10
  1 neighbor lists, perpetual/occasional/extra = 1 0 0
  (1) pair table/pgn, perpetual
      attributes: half, newton on
      pair build: half/bin/atomonly/newton
      stencil: half/bin/3d
      bin: standard
Per MPI rank memory allocation (min/avg/max) = 3.857 | 3.858 | 3.858 Mbytes
   Step          Temp           v_p1           v_p2           v_p3           v_p4          Press            Lx             Ly             Lz           Volume        Density         E_pair         PotEng         KinEng         TotEng          Pxx            Pyy            Pzz            Pxy            Pxz            Pyz           S/CPU     
         0   292.71311      6.0214513e-16  0.021900713    0.026597512    0.019640307   -224.15834      566.40915      566.40915      566.40915      1.81715e+08    2.3931992     -12999738      -12999738       871.64966     -12998867      -216.14323     -262.49703     -193.83475      15.332649      6.6356363      23.659609      0            
      1000   335.74015      0.0005         0.033134769    0.0379545      0.031443482   -337.30653      566.69236      566.69236      566.69236      1.8198771e+08  2.389613      -12998744      -12998744       999.77684     -12997744      -327.01475     -374.58179     -310.32304      12.901635      6.8303725      25.036891      13456.408    
      2000   403.91485      0.001          0.042595154    0.046819748    0.040976551   -428.95453      566.97556      566.97556      566.97556      1.8226069e+08  2.3860339     -12997563      -12997563       1202.7895     -12996360      -420.38148     -462.07499     -404.40712      10.223213      6.2107631      23.93776       14066.156    
      3000   469.55332      0.0015         0.049791241    0.053152287    0.047892664   -496.21249      567.25877      567.25877      567.25877      1.8253395e+08  2.382462      -12996231      -12996231       1398.2496     -12994833      -491.40134     -524.57228     -472.66384      10.079827      5.7210167      22.254754      14141.55     
      4000   508.18561      0.002          0.056152705    0.059219411    0.053961845   -557.06542      567.54197      567.54197      567.54197      1.8280748e+08  2.3788972     -12994731      -12994731       1513.29       -12993218      -554.18411     -584.45014     -532.562        13.509412      5.5283933      20.498654      13533.557    
      5000   518.34052      0.0025         0.063301443    0.066512461    0.060899292   -627.39764      567.82518      567.82518      567.82518      1.8308128e+08  2.3753396     -12992995      -12992995       1543.5296     -12991452      -624.73667     -656.42696     -601.02929      16.185075      4.0847421      18.180543      13389.735    
      6000   509.47698      0.003          0.071427713    0.074899533    0.068918009   -708.10184      568.10838      568.10838      568.10838      1.8335535e+08  2.371789      -12990957      -12990957       1517.1355     -12989440      -704.93672     -739.20092     -680.16786      15.163848      0.69755895     16.132196      13505.113    
      7000   492.20118      0.0035         0.079670824    0.08333111     0.077303032   -790.54187      568.39158      568.39158      568.39158      1.836297e+08   2.3682455     -12988586      -12988586       1465.6911     -12987120      -786.2899      -822.41411     -762.9216       12.459349     -2.2340049      15.022617      13440.823    
      8000   473.75056      0.004          0.087393196    0.09114369     0.085380216   -868.21976      568.67479      568.67479      568.67479      1.8390432e+08  2.364709      -12985872      -12985872       1410.7483     -12984461      -862.50378     -899.51828     -842.63722      9.9616549     -2.7396197      15.037686      13512.423    
      9000   456.78725      0.0045         0.094899912    0.098426842    0.093145263   -942.41966      568.95799      568.95799      568.95799      1.8417921e+08  2.3611796     -12982826      -12982826       1360.2344     -12981466      -936.58931     -971.3974      -919.27228      8.8970155     -1.0902311      15.829768      13600.786    
     10000   441.53592      0.005          0.10245315     0.10532625     0.10071994    -1014.8839      569.2412       569.2412       569.2412       1.8445438e+08  2.3576572     -12979458      -12979458       1314.8186     -12978143      -1011.1339     -1039.4893     -994.02852      9.9084788      0.36335998     16.337699      13426.684    
     11000   428.06288      0.0055         0.10977873     0.11202076     0.10801457    -1085.0039      569.5244       569.5244       569.5244       1.8472982e+08  2.3541418     -12975764      -12975764       1274.6982     -12974489      -1083.4318     -1105.5589     -1066.0209      9.1313929     -0.47107709     15.836739      13754.784    
     12000   416.13244      0.006          0.11661396     0.11864626     0.11492243    -1152.0114      569.80761      569.80761      569.80761      1.8500554e+08  2.3506334     -12971760      -12971760       1239.1713     -12970521      -1150.8903     -1170.9475     -1134.1962      6.3683291     -3.3736888      14.648692      13702.771    
     13000   405.83302      0.0065         0.12305151     0.12518302     0.12137345    -1215.9157      570.09081      570.09081      570.09081      1.8528153e+08  2.347132      -12967473      -12967473       1208.5014     -12966264      -1214.424      -1235.4604     -1197.8628      5.2457999     -5.0203062      12.965394      13372.586    
     14000   397.41796      0.007          0.12943656     0.13171909     0.12760433    -1278.9209      570.37402      570.37402      570.37402      1.8555779e+08  2.3436375     -12962909      -12962909       1183.4428     -12961726      -1277.4395     -1299.9663     -1259.3568      6.0807944     -4.6217151      12.330816      13595.842    
     15000   390.85064      0.0075         0.13574462     0.13812724     0.13392851    -1341.5589      570.65722      570.65722      570.65722      1.8583433e+08  2.3401499     -12958084      -12958084       1163.8865     -12956920      -1339.6952     -1363.2098     -1321.7717      6.9558265     -4.5347982      12.828276      13471.307    
     16000   385.83248      0.008          0.14191154     0.14438792     0.1403477     -1403.56        570.94043      570.94043      570.94043      1.8611115e+08  2.3366693     -12952998      -12952998       1148.9432     -12951849      -1400.558      -1424.9979     -1385.1241      7.1187913     -6.4515463      12.749118      13378.675    
     17000   381.89118      0.0085         0.14809934     0.15057198     0.14641264    -1464.2124      571.22363      571.22363      571.22363      1.8638823e+08  2.3331955     -12947643      -12947643       1137.2067     -12946506      -1461.6268     -1486.03       -1444.9804      7.2383662     -8.2733693      11.487672      13394.385    
     18000   378.9452       0.009          0.15428913     0.15629648     0.15211904    -1522.18        571.50684      571.50684      571.50684      1.866656e+08   2.3297287     -12942031      -12942031       1128.4341     -12940902      -1522.7154     -1542.5263     -1501.2982      6.5286136     -7.4430713      9.9434273      13713.012    
     19000   376.89734      0.0095         0.16035927     0.1616119      0.15780036    -1578.3256      571.79004      571.79004      571.79004      1.8694324e+08  2.3262687     -12936180      -12936180       1122.3359     -12935057      -1582.623      -1594.9855     -1557.3685      5.238245      -5.3670886      9.3950681      13474.611    
     20000   375.09285      0.01           0.16587354     0.16692739     0.16358602    -1632.9861      572.07324      572.07324      572.07324      1.8722115e+08  2.3228155     -12930093      -12930093       1116.9625     -12928976      -1637.0446     -1647.4452     -1614.4685      5.0736809     -4.1699552      11.422217      14054.329    
     21000   373.75431      0.0105         0.17087411     0.17204746     0.16905542    -1684.2733      572.35645      572.35645      572.35645      1.8749934e+08  2.3193692     -12923781      -12923781       1112.9765     -12922668      -1686.3963     -1697.9764     -1668.4473      4.5978564     -6.470781       14.760813      14118.042    
     22000   373.29881      0.011          0.17597201     0.1769977      0.17428156    -1734.5218      572.63965      572.63965      572.63965      1.877778e+08   2.3159297     -12917260      -12917260       1111.6201     -12916148      -1736.7087     -1746.8315     -1720.0253      3.7344853     -9.406252       15.834474      14143.517    
     23000   373.68782      0.0115         0.18114491     0.18202672     0.17942325    -1784.9984      572.92286      572.92286      572.92286      1.8805654e+08  2.312497      -12910527      -12910527       1112.7785     -12909414      -1787.7612     -1796.4641     -1770.7698      3.7882645     -10.813215      14.979256      13763.454    
     24000   374.98465      0.012          0.18616816     0.18709259     0.18426655    -1834.1222      573.20606      573.20606      573.20606      1.8833556e+08  2.3090711     -12903587      -12903587       1116.6402     -12902470      -1837.3369     -1846.4603     -1818.5695      3.7725194     -10.95184       14.236481      13371.727    
     25000   376.76143      0.0125         0.19115664     0.1921         0.18879163    -1881.8925      573.48927      573.48927      573.48927      1.8861485e+08  2.305652      -12896453      -12896453       1121.9312     -12895331      -1886.5694     -1895.8796     -1863.2285      3.64621       -11.38946       13.185152      13326.388    
     26000   378.20753      0.013          0.19615331     0.19674766     0.1932439     -1928.2667      573.77247      573.77247      573.77247      1.8889442e+08  2.3022395     -12889128      -12889128       1126.2375     -12888002      -1935.8827     -1941.7485     -1907.169       2.3392853     -10.792987      12.966913      13275.912    
     27000   379.29289      0.0135         0.20079886     0.20102997     0.19778641    -1972.5808      574.05568      574.05568      574.05568      1.8917426e+08  2.2988339     -12881618      -12881618       1129.4695     -12880489      -1981.7307     -1984.0115     -1952.0001     -0.094138977   -8.1638045      11.780795      13300.833    
     28000   380.62065      0.014          0.20464233     0.2048051      0.20221908    -2012.2264      574.33888      574.33888      574.33888      1.8945438e+08  2.2954349     -12873935      -12873935       1133.4233     -12872801      -2019.6628     -2021.2692     -1995.7472     -1.1162745     -5.3801888      8.0292276      13328.646    
     29000   382.74806      0.0145         0.20849112     0.20841756     0.20657713    -2051.1089      574.62209      574.62209      574.62209      1.8973478e+08  2.2920426     -12866086      -12866086       1139.7584     -12864946      -2057.6474     -2056.9214     -2038.7578     -0.19998593    -5.8481053      6.0438181      13512.785    
     30000   384.97281      0.015          0.21297644     0.21278198     0.21103577    -2094.89        574.90529      574.90529      574.90529      1.9001545e+08  2.288657      -12858066      -12858066       1146.3833     -12856920      -2101.9141     -2099.9949     -2082.7612      2.5431262     -8.8755995      8.4985161      13479.514    
     31000   386.99882      0.0155         0.21760192     0.21755961     0.21517865    -2139.4528      575.18849      575.18849      575.18849      1.902964e+08   2.2852781     -12849863      -12849863       1152.4164     -12848711      -2147.5639     -2147.1464     -2123.6481      3.4520128     -11.268437      13.235766      13302.712    
     32000   389.72918      0.016          0.22191371     0.22196518     0.21898619    -2180.6566      575.4717       575.4717       575.4717       1.9057763e+08  2.2819058     -12841486      -12841486       1160.5469     -12840326      -2190.118      -2190.626      -2161.2256      0.84937673    -11.938602      15.980956      13407.577    
     33000   392.74817      0.0165         0.22585896     0.22586103     0.22273838    -2218.7955      575.7549       575.7549       575.7549       1.9085913e+08  2.2785402     -12832954      -12832954       1169.537      -12831785      -2229.0547     -2229.075      -2198.2569     -2.3745723     -11.01824       15.931357      13428.89     
     34000   395.21995      0.017          0.22933808     0.22920401     0.22629892    -2252.9518      576.03811      576.03811      576.03811      1.9114091e+08  2.2751812     -12824271      -12824271       1176.8975     -12823095      -2263.3909     -2262.0677     -2233.3967     -2.7684227     -10.145922      14.75379       13355.035    
     35000   397.51549      0.0175         0.23228188     0.23216062     0.22967758    -2283.4775      576.32131      576.32131      576.32131      1.9142297e+08  2.2718288     -12815456      -12815456       1183.7332     -12814272      -2292.4439     -2291.2472     -2266.7415     -1.1968251     -10.318246      13.52793       13326.328    
     36000   400.31672      0.018          0.23512795     0.23482068     0.2331207     -2312.9183      576.60452      576.60452      576.60452      1.917053e+08   2.2684829     -12806523      -12806523       1192.0748     -12805331      -2320.5324     -2317.5        -2300.7224     -0.41066538    -11.643238      12.741253      13290.88     
     37000   402.77543      0.0185         0.2384845      0.2378474      0.2367087     -2345.7212      576.88772      576.88772      576.88772      1.9198791e+08  2.2651436     -12797457      -12797457       1199.3964     -12796258      -2353.659      -2347.3713     -2336.1332     -0.22314164    -11.639729      11.561402      13270.457    
     38000   404.2339       0.019          0.24227887     0.24127516     0.23991945    -2380.0427      577.17093      577.17093      577.17093      1.922708e+08   2.2618109     -12788247      -12788247       1203.7395     -12787044      -2391.1065     -2381.2007     -2367.8209     -0.95435644    -10.297554      10.539079      13302.833    
     39000   405.93581      0.0195         0.24580943     0.24446488     0.24263618    -2411.088       577.45413      577.45413      577.45413      1.9255397e+08  2.2584847     -12778900      -12778900       1208.8075     -12777691      -2425.9504     -2412.6807     -2394.6329     -1.9716082     -9.3981106      9.9716975      13398.97     
     40000   408.38045      0.02           0.24873536     0.24752252     0.24535221    -2439.7075      577.73734      577.73734      577.73734      1.9283742e+08  2.255165      -12769434      -12769434       1216.0873     -12768218      -2454.8271     -2442.8573     -2421.438      -1.3674992     -8.767957       10.53647       13344.363    
     41000   411.15561      0.0205         0.25124726     0.25067627     0.24822639    -2467.8014      578.02054      578.02054      578.02054      1.9312114e+08  2.2518519     -12759857      -12759857       1224.3512     -12758633      -2479.6177     -2473.9824     -2449.804      -0.55974974    -7.8191112      11.381629      13388.204    
     42000   413.92536      0.021          0.25364136     0.25359442     0.25101066    -2494.4369      578.30374      578.30374      578.30374      1.9340514e+08  2.2485452     -12750165      -12750165       1232.599      -12748932      -2503.2456     -2502.7823     -2477.2827     -1.0845567     -7.1355921      11.179944      13355.146    
     43000   416.57255      0.0215         0.25602601     0.25585113     0.25356362    -2518.1043      578.58695      578.58695      578.58695      1.9368942e+08  2.245245      -12740368      -12740368       1240.4819     -12739127      -2526.7803     -2525.0544     -2502.4784     -2.6416305     -6.6371573      12.744781      13338.236    
     44000   418.93903      0.022          0.2584572      0.25780033     0.25609482    -2540.8417      578.87015      578.87015      578.87015      1.9397398e+08  2.2419512     -12730476      -12730476       1247.5289     -12729228      -2550.7742     -2544.2914     -2527.4594     -4.3009961     -6.9823433      16.227523      13331.424    
     45000   421.01428      0.0225         0.26109734     0.25997326     0.25861316    -2564.9602      579.15336      579.15336      579.15336      1.9425882e+08  2.2386639     -12720486      -12720486       1253.7086     -12719232      -2576.8304     -2565.7366     -2552.3135     -5.1970339     -7.7857732      15.82829       13424.852    
     46000   422.72992      0.023          0.26386057     0.26223619     0.26100288    -2589.3565      579.43656      579.43656      579.43656      1.9454393e+08  2.235383      -12710391      -12710391       1258.8175     -12709133      -2604.1013     -2588.07       -2575.8981     -5.6989485     -8.4923879      11.773509      13290.288    
     47000   423.95746      0.0235         0.26647924     0.26444761     0.26336332    -2613.0115      579.71977      579.71977      579.71977      1.9482933e+08  2.2321085     -12700188      -12700188       1262.4729     -12698926      -2629.9456     -2609.8949     -2599.1939     -3.9992965     -10.591461      8.7848438      13290.812    
     48000   425.18997      0.024          0.26859933     0.26667229     0.26527316    -2633.5876      580.00297      580.00297      580.00297      1.95115e+08    2.2288404     -12689889      -12689889       1266.1431     -12688623      -2650.8693     -2631.8509     -2618.0425     -1.0072909     -10.869338      9.3294642      13408.762    
     49000   427.24526      0.0245         0.27015101     0.26876989     0.26696207    -2651.1488      580.28618      580.28618      580.28618      1.9540095e+08  2.2255787     -12679512      -12679512       1272.2634     -12678239      -2666.1832     -2652.5526     -2634.7108     -0.53347851    -10.422365      11.924825      13473.999    
     50000   429.72126      0.025          0.27180596     0.27080993     0.26899189    -2669.982       580.56938      580.56938      580.56938      1.9568718e+08  2.2223233     -12669058      -12669058       1279.6365     -12667778      -2682.5163     -2672.6862     -2654.7436     -3.1040211     -9.4179732      13.893019      12853.134    
     51000   431.87282      0.0255         0.27397933     0.27307661     0.2710928     -2691.5001      580.85259      580.85259      580.85259      1.959737e+08   2.2190743     -12658523      -12658523       1286.0435     -12657236      -2703.9658     -2695.0566     -2675.478      -5.9975973     -7.8056873      14.833212      13322.169    
     52000   433.63722      0.026          0.27610062     0.27504041     0.27306826    -2711.4378      581.13579      581.13579      581.13579      1.9626049e+08  2.2158317     -12647907      -12647907       1291.2976     -12646616      -2724.9013     -2714.4378     -2694.9742     -8.5670624     -6.2645994      13.83286       13318.327    
     53000   435.15326      0.0265         0.27769453     0.27637407     0.2747029     -2726.4463      581.419        581.419        581.419        1.9654756e+08  2.2125953     -12637221      -12637221       1295.8121     -12635925      -2740.632      -2727.6        -2711.1069     -8.3213797     -5.9078045      11.35616       12838.607    
     54000   436.39221      0.027          0.27891587     0.27715674     0.2758864     -2736.9323      581.7022       581.7022       581.7022       1.9683491e+08  2.2093652     -12626473      -12626473       1299.5015     -12625173      -2752.6856     -2735.3244     -2722.787      -5.2961023     -7.7170105      8.8852441      13276.047    
     55000   437.33833      0.0275         0.28017547     0.27815419     0.27715822    -2748.5414      581.9854       581.9854       581.9854       1.9712254e+08  2.2061414     -12615658      -12615658       1302.3189     -12614356      -2765.1169     -2745.1684     -2735.3389     -3.9447471     -9.1480784      8.7189887      13201.929    
     56000   437.92722      0.028          0.28163394     0.27962283     0.27898198    -2764.1706      582.26861      582.26861      582.26861      1.9741045e+08  2.2029239     -12604774      -12604774       1304.0725     -12603470      -2779.5109     -2759.6628     -2753.3381     -6.1100347     -8.5530013      10.657091      13334.095    
     57000   438.40504      0.0285         0.28319804     0.28134361     0.28089055    -2781.2557      582.55181      582.55181      582.55181      1.9769864e+08  2.1997127     -12593821      -12593821       1305.4953     -12592516      -2794.9474     -2776.6455     -2772.1742     -8.624622      -6.9108157      12.117385      13424.355    
     58000   439.38257      0.029          0.28454429     0.28272827     0.2821655     -2794.434       582.83502      582.83502      582.83502      1.9798711e+08  2.1965077     -12582804      -12582804       1308.4063     -12581496      -2808.2338     -2790.3111     -2784.757      -8.8044324     -6.0500437      11.948815      13324.024    
     59000   441.22027      0.0295         0.28567405     0.28374222     0.28276252    -2803.4503      583.11822      583.11822      583.11822      1.9827586e+08  2.1933089     -12571736      -12571736       1313.8786     -12570423      -2819.3837     -2800.318      -2790.6491     -7.9708783     -8.1328611      9.9871317      13348.77     
     60000   442.84705      0.03           0.2867263      0.28482083     0.28324879    -2812.06        583.40143      583.40143      583.40143      1.9856489e+08  2.1901163     -12560640      -12560640       1318.7229     -12559322      -2829.7686     -2810.963      -2795.4482     -7.7919382     -12.786384      6.8309016      13326.071    
     61000   443.9882       0.0305         0.28759072     0.28562265     0.28406827    -2820.2373      583.68463      583.68463      583.68463      1.988542e+08   2.1869299     -12549510      -12549510       1322.121      -12548188      -2838.2997     -2818.8764     -2803.5358     -7.6617503     -14.812225      4.6746888      13349.981    
     62000   444.81759      0.031          0.28856079     0.2864486      0.28543394    -2830.6385      583.96784      583.96784      583.96784      1.991438e+08   2.1837497     -12538328      -12538328       1324.5908     -12537003      -2847.8736     -2827.0279     -2817.014      -8.7357131     -11.906755      6.3081045      13249.595    
     63000   445.13285      0.0315         0.28954775     0.28744553     0.2868472     -2841.8142      584.25104      584.25104      584.25104      1.9943367e+08  2.1805756     -12527081      -12527081       1325.5296     -12525755      -2857.6141     -2836.8668     -2830.9618     -11.755912     -7.4438246      9.1294435      13258.081    
     64000   445.65468      0.032          0.29010628     0.288216       0.28764103    -2848.7978      584.53425      584.53425      584.53425      1.9972383e+08  2.1774077     -12515782      -12515782       1327.0835     -12514455      -2863.1263     -2844.4707     -2838.7962     -13.13186      -6.4676584      9.3902983      13192.853    
     65000   446.69301      0.0325         0.29063365     0.28865152     0.28814623    -2853.6274      584.81745      584.81745      584.81745      2.0001426e+08  2.1742459     -12504460      -12504460       1330.1755     -12503130      -2868.3311     -2848.769      -2843.7822     -11.650469     -8.6158222      8.3874926      13332.234    
     66000   447.44599      0.033          0.29135745     0.28893371     0.28888977    -2859.3829      585.10065      585.10065      585.10065      2.0030498e+08  2.1710903     -12493119      -12493119       1332.4178     -12491787      -2875.4744     -2851.554      -2851.1203     -9.5808207     -10.787425      7.912898       13227.713    
     67000   447.83062      0.0335         0.29177172     0.28917764     0.2893245     -2862.9784      585.38386      585.38386      585.38386      2.0059598e+08  2.1679407     -12481750      -12481750       1333.5631     -12480417      -2879.5629     -2853.9614     -2855.4108     -7.414157      -9.3657018      8.4576753      13240.59     
     68000   448.03762      0.034          0.29217477     0.28972533     0.28924581    -2865.8472      585.66706      585.66706      585.66706      2.0088726e+08  2.1647973     -12470352      -12470352       1334.1795     -12469018      -2883.5407     -2859.3667     -2854.6342     -6.5979669     -8.2478283      7.7181291      13288.819    
     69000   448.20381      0.0345         0.29261399     0.29042361     0.28931405    -2869.8138      585.95027      585.95027      585.95027      2.0117883e+08  2.1616599     -12458926      -12458926       1334.6744     -12457592      -2887.8756     -2866.2582     -2855.3077     -8.5570139     -9.9842517      5.0506974      13284.937    
     70000   448.55162      0.035          0.29293161     0.29089428     0.29004609    -2874.8153      586.23347      586.23347      586.23347      2.0147067e+08  2.1585285     -12447483      -12447483       1335.7101     -12446148      -2891.0102     -2870.9034     -2862.5324     -12.102996     -12.153957      1.3995288      13338.84     
     71000   449.05862      0.0355         0.29332727     0.29115406     0.29089621    -2879.7682      586.51668      586.51668      586.51668      2.017628e+08   2.1554033     -12436016      -12436016       1337.2199     -12434679      -2894.9151     -2873.4672     -2870.9223     -13.254644     -13.186765     -1.2716553      13176.087    
     72000   449.77519      0.036          0.29362904     0.29118877     0.29115968    -2881.7419      586.79988      586.79988      586.79988      2.0205521e+08  2.152284      -12424525      -12424525       1339.3537     -12423186      -2897.8934     -2873.8097     -2873.5227     -11.17361      -14.31717      -0.72054215     13244.247    
     73000   450.47016      0.0365         0.29376857     0.29101163     0.29095977    -2880.9605      587.08309      587.08309      587.08309      2.023479e+08   2.1491708     -12413022      -12413022       1341.4232     -12411681      -2899.2704     -2872.0615     -2871.5497     -10.424308     -13.878702      0.23240288     13258.056    
     74000   450.841        0.037          0.29372191     0.29090685     0.29078017    -2879.8714      587.36629      587.36629      587.36629      2.0264088e+08  2.1460635     -12401513      -12401513       1342.5275     -12400171      -2898.8098     -2871.0274     -2869.7771     -11.77587      -11.562284     -0.10564524     13214.289    
     75000   450.96724      0.0375         0.29354902     0.29107677     0.29095372    -2880.4326      587.6495       587.6495       587.6495       2.0293413e+08  2.1429623     -12389997      -12389997       1342.9034     -12388654      -2897.1036     -2872.7044     -2871.49       -13.632544     -9.4029283     -0.15912992     13207.44     
     76000   450.48116      0.038          0.29351611     0.29119916     0.29128836    -2881.8279      587.9327       587.9327       587.9327       2.0322767e+08  2.139867      -12378465      -12378465       1341.456      -12377124      -2896.7788     -2873.9123     -2874.7926     -13.445502     -9.2903996     -1.6313285      13243.775    
     77000   449.50816      0.0385         0.29353139     0.29104615     0.29120216    -2881.0912      588.21591      588.21591      588.21591      2.035215e+08   2.1367777     -12366911      -12366911       1338.5585     -12365572      -2896.9295     -2872.4022     -2873.9418     -11.391712     -10.559112     -3.2157459      13381.344    
     78000   449.26336      0.039          0.2931412      0.29057095     0.29057012    -2876.165       588.49911      588.49911      588.49911      2.038156e+08   2.1336943     -12355357      -12355357       1337.8296     -12354019      -2893.0787     -2867.7123     -2867.7041     -10.254363     -12.196852     -4.2541035      13240.743    
     79000   450.00556      0.0395         0.29249148     0.28996397     0.2900363     -2870.2747      588.78231      588.78231      588.78231      2.0410999e+08  2.1306169     -12343836      -12343836       1340.0397     -12342496      -2886.6665     -2861.7218     -2862.4357     -10.497793     -12.389814     -5.3368134      13287.581    
     80000   450.85679      0.04           0.29196685     0.2896278      0.28989834    -2866.989       589.06552      589.06552      589.06552      2.0440467e+08  2.1275454     -12332339      -12332339       1342.5745     -12330996      -2881.4888     -2858.4041     -2861.0742     -9.6549701     -10.694437     -5.1475401      13199.345    
     81000   450.95584      0.0405         0.29184675     0.28955503     0.28973087    -2865.8036      589.34872      589.34872      589.34872      2.0469962e+08  2.1244797     -12320835      -12320835       1342.8695     -12319492      -2880.3035     -2857.686      -2859.4214     -8.0235603     -9.9322229     -3.8929581      13402.185    
     82000   450.13187      0.041          0.29175388     0.28942165     0.28935862    -2863.8347      589.63193      589.63193      589.63193      2.0499486e+08  2.12142       -12309314      -12309314       1340.4158     -12307973      -2879.3869     -2856.3696     -2855.7476     -8.5801228     -10.74144      -5.7465799      13215.906    
     83000   449.05091      0.0415         0.2910864      0.28883013     0.28871363    -2857.571       589.91513      589.91513      589.91513      2.0529039e+08  2.1183661     -12297786      -12297786       1337.1969     -12296448      -2872.7994     -2850.5317     -2849.3819     -11.222164     -12.736007     -9.0772392      13328.837    
     84000   448.41035      0.042          0.29026586     0.28797507     0.28787999    -2849.3163      590.19834      590.19834      590.19834      2.0558619e+08  2.1153181     -12286278      -12286278       1335.2895     -12284943      -2864.7013     -2842.093      -2841.1546     -12.603548     -14.857066     -10.218655      13310.886    
     85000   448.09346      0.0425         0.2894902      0.28730298     0.28718836    -2842.2783      590.48154      590.48154      590.48154      2.0588228e+08  2.112276      -12274811      -12274811       1334.3458     -12273476      -2857.0462     -2835.46       -2834.3288     -12.330545     -14.481957     -8.8325911      13249.773    
     86000   447.46163      0.043          0.2886528      0.2867334      0.28681777    -2836.4305      590.76475      590.76475      590.76475      2.0617866e+08  2.1092396     -12263367      -12263367       1332.4643     -12262035      -2848.7816     -2829.8386     -2830.6713     -11.397521     -12.914247     -8.5554083      13179.662    
     87000   446.82397      0.0435         0.28782938     0.28570561     0.28602017    -2827.7166      591.04795      591.04795      591.04795      2.0647532e+08  2.1062091     -12251933      -12251933       1330.5655     -12250602      -2840.6551     -2819.6952     -2822.7996     -10.137546     -11.965619     -9.1604648      13148.401    
     88000   446.68518      0.044          0.28686685     0.28451935     0.28481315    -2816.6768      591.33116      591.33116      591.33116      2.0677226e+08  2.1031844     -12240520      -12240520       1330.1522     -12239190      -2831.1557     -2807.9876     -2810.8872     -9.3852816     -11.041093     -10.09016       13096.768    
     89000   446.59315      0.0445         0.28575197     0.28358378     0.2839902     -2807.2241      591.61436      591.61436      591.61436      2.0706949e+08  2.1001655     -12229146      -12229146       1329.8782     -12227816      -2820.1527     -2798.7543     -2802.7654     -9.9963003     -10.400513     -11.476913      13316.862    
     90000   446.28057      0.045          0.28491455     0.28312123     0.28340745    -2801.0305      591.89756      591.89756      591.89756      2.0736701e+08  2.0971523     -12217801      -12217801       1328.9473     -12216472      -2811.888      -2794.1893     -2797.0141     -10.646754     -11.08079      -13.415526      13268.569    
     91000   445.74143      0.0455         0.28405595     0.28275024     0.28253863    -2794.1272      592.18077      592.18077      592.18077      2.0766481e+08  2.0941449     -12206467      -12206467       1327.3419     -12205140      -2803.4143     -2790.5279     -2788.4395     -10.141524     -11.410117     -14.052858      13164.872    
     92000   444.81302      0.046          0.28296629     0.28182796     0.28162047    -2784.4879      592.46397      592.46397      592.46397      2.0796289e+08  2.0911433     -12195153      -12195153       1324.5772     -12193828      -2792.6601     -2781.4257     -2779.3779     -8.245576      -11.584894     -13.496314      13175.237    
     93000   443.61471      0.0465         0.28158016     0.28008085     0.28051779    -2770.5528      592.74718      592.74718      592.74718      2.0826126e+08  2.0881474     -12183881      -12183881       1321.0089     -12182560      -2778.9801     -2764.183      -2768.4954     -8.0432114     -12.317289     -12.639904      13118.78     
     94000   442.98266      0.047          0.28008072     0.27841945     0.27911893    -2755.5526      593.03038      593.03038      593.03038      2.0855991e+08  2.0851572     -12172668      -12172668       1319.1267     -12171348      -2764.1818     -2747.7864     -2754.6897     -9.7698105     -11.656299     -12.541761      13146.235    
     95000   442.25385      0.0475         0.27873438     0.27734104     0.2780204     -2743.9619      593.31359      593.31359      593.31359      2.0885885e+08  2.0821727     -12161499      -12161499       1316.9565     -12160182      -2750.8945     -2737.1433     -2743.8481     -11.238685     -9.6173476     -13.892122      13163.185    
     96000   440.89521      0.048          0.27725553     0.27633566     0.27680014    -2731.7751      593.59679      593.59679      593.59679      2.0915807e+08  2.0791939     -12150353      -12150353       1312.9106     -12149041      -2736.2993     -2727.2209     -2731.805      -12.583218     -8.2701399     -16.192033      13215.272    
     97000   440.15885      0.0485         0.27565724     0.2750039      0.27528086    -2717.1379      593.88         593.88         593.88         2.0945759e+08  2.0762208     -12139253      -12139253       1310.7179     -12137943      -2720.5254     -2714.0775     -2716.8109     -12.527725     -9.2483201     -18.156041      13196.208    
     98000   439.72353      0.049          0.27439116     0.27381654     0.27417763    -2705.4374      594.1632       594.1632       594.1632       2.0975738e+08  2.0732534     -12128206      -12128206       1309.4216     -12126896      -2708.0302     -2702.3591     -2705.9228     -10.374441     -11.085728     -20.806639      13357.534    
     99000   438.45039      0.0495         0.27354805     0.27283154     0.27341462    -2696.9133      594.44641      594.44641      594.44641      2.1005746e+08  2.0702916     -12117190      -12117190       1305.6304     -12115884      -2699.7093     -2692.6379     -2698.3925     -7.8141908     -12.698722     -22.031205      13223.072    
    100000   437.05416      0.05           0.27245444     0.27150155     0.27244243    -2685.742       594.72961      594.72961      594.72961      2.1035783e+08  2.0673354     -12106206      -12106206       1301.4727     -12104904      -2688.9163     -2679.512      -2688.7978     -6.7723761     -12.636897     -19.471342      12782.149    
    101000   436.14569      0.0505         0.27097222     0.27008697     0.27120049    -2672.1266      595.01281      595.01281      595.01281      2.1065849e+08  2.0643849     -12095265      -12095265       1298.7674     -12093966      -2674.2879     -2665.5512     -2676.5407     -7.2360773     -9.714121      -18.138098      13050.963    
    102000   435.40137      0.051          0.26937611     0.26894114     0.26962884    -2657.936       595.29602      595.29602      595.29602      2.1095943e+08  2.06144       -12084368      -12084368       1296.5509     -12083071      -2658.5355     -2654.2427     -2661.0298     -7.5706858     -7.4910978     -19.408807      13359.669    
    103000   434.73818      0.0515         0.26780901     0.26776819     0.26797477    -2643.4804      595.57922      595.57922      595.57922      2.1126065e+08  2.0585007     -12073516      -12073516       1294.5761     -12072222      -2643.0694     -2642.6666     -2644.7053     -6.6076655     -7.3657749     -21.24637       13229.786    
    104000   434.02324      0.052          0.266275       0.2660942      0.26657459    -2628.3207      595.86243      595.86243      595.86243      2.1156217e+08  2.0555669     -12062715      -12062715       1292.4471     -12061423      -2627.93       -2626.1456     -2630.8866     -5.9431122     -8.7297535     -23.688005      13294.776    
    105000   433.15713      0.0525         0.26465065     0.26416648     0.26515152    -2611.9538      596.14563      596.14563      596.14563      2.1186397e+08  2.0526388     -12051971      -12051971       1289.868      -12050682      -2611.8989     -2607.1205     -2616.842      -6.0884928     -10.97062      -27.006535      13255.021    
    106000   431.66572      0.053          0.26304619     0.26248256     0.2635977     -2596.0242      596.42884      596.42884      596.42884      2.1216606e+08  2.0497162     -12041290      -12041290       1285.4268     -12040004      -2596.0641     -2590.5015     -2601.5071     -6.5517539     -12.314267     -28.902322      13392.683    
    107000   429.38741      0.0535         0.26137357     0.26074866     0.26186606    -2579.121       596.71204      596.71204      596.71204      2.1246843e+08  2.0467991     -12030668      -12030668       1278.6424     -12029390      -2579.5566     -2573.3892     -2584.4171     -6.5842246     -12.26715      -27.868972      13259        
    108000   427.32022      0.054          0.25940904     0.2586785      0.26018508    -2560.3178      596.99525      596.99525      596.99525      2.1277109e+08  2.0438876     -12020099      -12020099       1272.4867     -12018827      -2560.1681     -2552.9583     -2567.8271     -7.2625181     -10.26839      -25.535258      13188.131    
    109000   426.06357      0.0545         0.2575117      0.25679077     0.25874795    -2543.1382      597.27845      597.27845      597.27845      2.1307404e+08  2.0409816     -12009591      -12009591       1268.7446     -12008322      -2541.4429     -2534.3279     -2553.6437     -8.7134482     -9.137129      -24.150309      13238.746    
    110000   425.25663      0.055          0.25618494     0.25568842     0.25734808    -2530.5418      597.56166      597.56166      597.56166      2.1337728e+08  2.0380811     -11999136      -11999136       1266.3416     -11997869      -2528.3488     -2523.4485     -2539.8281     -7.5343622     -9.8153084     -24.476427      13390.153    
    111000   424.31301      0.0555         0.25498666     0.25500344     0.25591422    -2519.6293      597.84486      597.84486      597.84486      2.136808e+08   2.0351861     -11988729      -11988729       1263.5317     -11987466      -2516.5227     -2516.6883     -2525.6769     -4.12229       -9.5987164     -26.082668      13265.896    
    112000   423.1632       0.056          0.25332945     0.25382087     0.25459115    -2505.9346      598.12807      598.12807      598.12807      2.1398461e+08  2.0322966     -11978361      -11978361       1260.1077     -11977101      -2500.1673     -2505.0173     -2512.6193     -2.5479056     -8.2070383     -27.673465      13142.522    
    113000   422.02615      0.0565         0.25132888     0.25178789     0.2531528     -2487.9334      598.41127      598.41127      598.41127      2.1428871e+08  2.0294125     -11968035      -11968035       1256.7218     -11966779      -2480.4232     -2484.9533     -2498.4238     -4.3108374     -7.1587267     -28.830054      13277.342    
    114000   421.07409      0.057          0.24936272     0.24940316     0.25149879    -2468.1789      598.69447      598.69447      598.69447      2.145931e+08   2.0265339     -11957780      -11957780       1253.8867     -11956526      -2461.0187     -2461.4178     -2482.1001     -8.1856267     -8.1923695     -29.931977      13362.256    
    115000   419.38286      0.0575         0.24761503     0.24730849     0.24993379    -2450.39        598.97768      598.97768      598.97768      2.1489777e+08  2.0236608     -11947606      -11947606       1248.8506     -11946357      -2443.7703     -2440.7451     -2466.6547     -10.170142     -10.450965     -31.894865      13236.84     
    116000   416.80437      0.058          0.24601103     0.24563502     0.24817256    -2433.814       599.26088      599.26088      599.26088      2.1520274e+08  2.0207931     -11937495      -11937495       1241.1722     -11936254      -2427.94       -2424.2292     -2449.2728     -9.2931716     -12.941418     -31.74833       13181.722    
    117000   414.46836      0.0585         0.24439375     0.24393799     0.24614571    -2416.243       599.54409      599.54409      599.54409      2.1550799e+08  2.0179308     -11927438      -11927438       1234.216      -11926204      -2411.9788     -2407.4808     -2429.2693     -7.0655121     -12.801337     -30.243905      13121.247    
    118000   413.23729      0.059          0.24255218     0.2422605      0.24394161    -2397.4152      599.82729      599.82729      599.82729      2.1581353e+08  2.0150738     -11917438      -11917438       1230.5501     -11916208      -2393.8039     -2390.9253     -2407.5165     -5.1735334     -10.460758     -31.028307      13272.78     
    119000   412.74674      0.0595         0.24071975     0.24067153     0.24217986    -2380.364       600.1105       600.1105       600.1105       2.1611936e+08  2.0122223     -11907505      -11907505       1229.0893     -11906276      -2375.7192     -2375.2433     -2390.1294     -6.3868304     -8.9773524     -32.719057      13231.623    
    120000   411.84073      0.06           0.23908626     0.23933034     0.2412191     -2367.4174      600.3937       600.3937       600.3937       2.1642548e+08  2.0093762     -11897628      -11897628       1226.3914     -11896401      -2359.5979     -2362.0068     -2380.6474     -8.0142467     -8.4008361     -32.579333      13200.23     
    121000   410.18025      0.0605         0.23733487     0.23788989     0.24025262    -2353.7376      600.67691      600.67691      600.67691      2.1673188e+08  2.0065354     -11887797      -11887797       1221.4467     -11886575      -2342.3131     -2347.7907     -2371.109      -8.1204398     -9.6342191     -29.840104      13203.974    
    122000   408.71731      0.061          0.23547122     0.23605785     0.23889247    -2337.1052      600.96011      600.96011      600.96011      2.1703858e+08  2.0037        -11878021      -11878021       1217.0904     -11876804      -2323.9203     -2329.7099     -2357.6854     -7.6344303     -11.922399     -27.894992      13364.936    
    123000   406.914        0.0615         0.2337341      0.2340743      0.23743422    -2320.0678      601.24332      601.24332      601.24332      2.1734557e+08  2.0008699     -11868310      -11868310       1211.7204     -11867099      -2306.7763     -2310.1337     -2343.2935     -6.0576573     -13.737519     -28.867266      13267.437    
    124000   404.13017      0.062          0.23204023     0.23210159     0.23560575    -2301.9905      601.52652      601.52652      601.52652      2.1765284e+08  1.9980451     -11858655      -11858655       1203.4306     -11857451      -2290.059      -2290.6646     -2325.248      -5.0411868     -14.24199      -30.758582      13237.293    
    125000   401.92696      0.0625         0.23016456     0.22998507     0.23307098    -2280.5185      601.80972      601.80972      601.80972      2.179604e+08   1.9952257     -11849061      -11849061       1196.8698     -11847864      -2271.5476     -2269.7762     -2300.2317     -4.9077946     -12.51944      -30.48468       13266.887    
    126000   401.26112      0.063          0.22823995     0.22815565     0.23072298    -2260.4444      602.09293      602.09293      602.09293      2.1826826e+08  1.9924116     -11839549      -11839549       1194.8871     -11838354      -2252.5531     -2251.7212     -2277.0588     -6.1060677     -9.9163747     -29.408943      13349.717    
    127000   400.61148      0.0635         0.22670407     0.22686772     0.22931169    -2246.512       602.37613      602.37613      602.37613      2.185764e+08   1.9896027     -11830109      -11830109       1192.9526     -11828916      -2237.3952     -2239.0103     -2263.1304     -7.5478361     -8.5179265     -29.544971      13226.537    
    128000   398.98299      0.064          0.22548498     0.22588531     0.22822046    -2235.6797      602.65934      602.65934      602.65934      2.1888483e+08  1.9867991     -11820716      -11820716       1188.1032     -11819528      -2225.3638     -2229.3147     -2252.3608     -8.9495569     -10.036582     -30.288626      13243.684    
    129000   396.89531      0.0645         0.22424093     0.22470392     0.22711657    -2224.0691      602.94254      602.94254      602.94254      2.1919356e+08  1.9840008     -11811354      -11811354       1181.8865     -11810172      -2213.0859     -2217.6552     -2241.4662     -10.477652     -13.259944     -30.19592       13277.247    
    130000   394.96338      0.065          0.2226395      0.22303384     0.2258253     -2209.0588      603.22575      603.22575      603.22575      2.1950257e+08  1.9812078     -11802021      -11802021       1176.1335     -11800845      -2197.281      -2201.1729     -2228.7224     -9.275797      -14.993541     -29.207222      13320.151    
    131000   393.7622       0.0655         0.22071677     0.22103469     0.22393364    -2189.9337      603.50895      603.50895      603.50895      2.1981187e+08  1.97842       -11792748      -11792748       1172.5566     -11791575      -2178.3052     -2181.4428     -2210.0532     -4.5122413     -13.59718      -28.654644      13276.837    
    132000   393.00605      0.066          0.21891423     0.21904524     0.22197689    -2171.0218      603.79216      603.79216      603.79216      2.2012147e+08  1.9756374     -11783556      -11783556       1170.3049     -11782386      -2160.5155     -2161.8084     -2190.7415     -1.577863      -10.174575     -29.072284      13270.552    
    133000   391.90082      0.0665         0.21741843     0.21726322     0.22035467    -2154.9019      604.07536      604.07536      604.07536      2.2043135e+08  1.97286       -11774437      -11774437       1167.0137     -11773270      -2145.7531     -2144.2212     -2174.7315     -2.4558669     -7.9176328     -28.984662      13236.737    
    134000   390.14039      0.067          0.21605594     0.21575445     0.2189737     -2140.9132      604.35857      604.35857      604.35857      2.2074153e+08  1.9700878     -11765375      -11765375       1161.7715     -11764213      -2132.3064     -2129.3308     -2161.1024     -5.5522906     -9.9387207     -28.047166      13358.793    
    135000   388.22815      0.0675         0.21476083     0.21467263     0.21765842    -2128.7668      604.64177      604.64177      604.64177      2.21052e+08    1.9673208     -11756361      -11756361       1156.0771     -11755205      -2119.5246     -2118.6542     -2148.1216     -7.9778967     -14.702367     -27.365228      13303.107    
    136000   386.21932      0.068          0.21359962     0.2136692      0.21648059    -2117.7709      604.92498      604.92498      604.92498      2.2136275e+08  1.9645591     -11747377      -11747377       1150.0952     -11746227      -2108.0643     -2108.7511     -2136.4973     -7.9908376     -17.842655     -27.398773      13220.282    
    137000   384.29821      0.0685         0.21228957     0.21220748     0.21516571    -2104.3269      605.20818      605.20818      605.20818      2.216738e+08   1.9618024     -11738410      -11738410       1144.3744     -11737265      -2095.1352     -2094.3249     -2123.5205     -7.6921787     -17.452557     -28.011047      13284.83     
    138000   383.08328      0.069          0.2105503      0.21043107     0.21335592    -2086.8074      605.49138      605.49138      605.49138      2.2198514e+08  1.9590509     -11729498      -11729498       1140.7566     -11728358      -2077.9699     -2076.7932     -2105.6592     -8.2926007     -14.55658      -28.542232      13218.536    
    139000   382.63725      0.0695         0.20846935     0.20880249     0.21150188    -2068.5047      605.77459      605.77459      605.77459      2.2229677e+08  1.9563046     -11720676      -11720676       1139.4284     -11719537      -2057.4325     -2060.7204     -2087.3613     -7.3563436     -12.260559     -28.404399      13160.452    
    140000   381.76395      0.07           0.2066317      0.20743372     0.21029404    -2053.9829      606.05779      606.05779      606.05779      2.2260869e+08  1.9535634     -11711927      -11711927       1136.8278     -11710790      -2039.2963     -2047.2117     -2075.4408     -4.6195959     -11.428176     -28.268374      13286.799    
    141000   379.85846      0.0705         0.2053263      0.20630106     0.20921545    -2042.4141      606.341        606.341        606.341        2.2292091e+08  1.9508273     -11703209      -11703209       1131.1536     -11702078      -2026.4131     -2036.0332     -2064.796      -2.5632686     -11.609989     -27.26648       13223.414    
    142000   377.64456      0.071          0.20423735     0.20516539     0.20772405    -2030.1893      606.6242       606.6242       606.6242       2.2323341e+08  1.9480964     -11694517      -11694517       1124.561      -11693392      -2015.6659     -2024.825      -2050.077      -3.4613331     -11.78637      -25.819394      13356.404    
    143000   375.73615      0.0715         0.20321053     0.20402594     0.20614315    -2017.862       606.90741      606.90741      606.90741      2.2354621e+08  1.9453705     -11685868      -11685868       1118.8781     -11684750      -2005.532      -2013.5794     -2034.4747     -5.2144518     -12.545337     -25.063544      13255.24     
    144000   374.06551      0.072          0.20224707     0.20275975     0.20480187    -2006.1146      607.19061      607.19061      607.19061      2.238593e+08   1.9426497     -11677266      -11677266       1113.9032     -11676152      -1996.0233     -2001.0832     -2021.2373     -7.4093386     -14.549309     -23.739133      13093.711    
    145000   372.83485      0.0725         0.20101005     0.20102965     0.20351383    -1992.1162      607.47382      607.47382      607.47382      2.2417268e+08  1.9399339     -11668717      -11668717       1110.2385     -11667607      -1983.815      -1984.0084     -2008.5253     -9.9648665     -16.445986     -21.645714      13134.238    
    146000   372.17521      0.073          0.1994786      0.19896512     0.20215669    -1975.8217      607.75702      607.75702      607.75702      2.2448636e+08  1.9372233     -11660220      -11660220       1108.2742     -11659112      -1968.7008     -1963.6331     -1995.1314     -10.893514     -15.71163      -21.085811      13256.522    
    147000   371.22094      0.0735         0.19822167     0.19753883     0.20106707    -1963.41        608.04023      608.04023      608.04023      2.2480032e+08  1.9345177     -11651766      -11651766       1105.4326     -11650661      -1956.2958     -1949.5566     -1984.3777     -8.6255263     -12.683236     -22.670016      13259.461    
    148000   369.82224      0.074          0.19736655     0.19701676     0.19999412    -1955.3497      608.32343      608.32343      608.32343      2.2511458e+08  1.9318171     -11643346      -11643346       1101.2675     -11642245      -1947.8564     -1944.4043     -1973.7885     -4.90483       -10.00613      -24.838572      13185.703    
    149000   368.58005      0.0745         0.19632092     0.19678855     0.19880776    -1947.2563      608.60663      608.60663      608.60663      2.2542914e+08  1.9291215     -11634961      -11634961       1097.5684     -11633864      -1937.5369     -1942.152      -1962.08       -3.0396461     -9.4970717     -24.424518      13206.729    
    150000   367.51353      0.075          0.19500844     0.19613583     0.19788335    -1937.7502      608.88984      608.88984      608.88984      2.2574398e+08  1.926431      -11626605      -11626605       1094.3925     -11625511      -1924.5837     -1935.7101     -1952.9569     -3.1407416     -9.7850168     -22.137338      12751.848    
    151000   366.23221      0.0755         0.1937663      0.19478294     0.19714515    -1926.7848      609.17304      609.17304      609.17304      2.2605912e+08  1.9237454     -11618272      -11618272       1090.577      -11617182      -1912.3247     -1922.3582     -1945.6714     -4.1152963     -9.6137484     -21.007457      13285.165    
    152000   365.13253      0.076          0.1927556      0.1930984      0.19597738    -1914.0764      609.45625      609.45625      609.45625      2.2637455e+08  1.9210649     -11609974      -11609974       1087.3023     -11608887      -1902.3498     -1905.733      -1934.1463     -5.7250461     -11.487644     -23.287936      13320.037    
    153000   364.05876      0.0765         0.1916703      0.19182373     0.19465292    -1901.9556      609.73945      609.73945      609.73945      2.2669028e+08  1.9183893     -11601728      -11601728       1084.1048     -11600644      -1891.6388     -1893.153      -1921.0749     -6.2655718     -14.948684     -26.559247      13292.88     
    154000   362.42665      0.077          0.19052521     0.19099147     0.19350266    -1891.6665      610.02266      610.02266      610.02266      2.2700629e+08  1.9157187     -11593523      -11593523       1079.2447     -11592444      -1880.3376     -1884.9393     -1909.7227     -6.4173191     -15.906485     -27.379259      13289.745    
    155000   360.61776      0.0775         0.1895134      0.19010491     0.19227512    -1881.3831      610.30586      610.30586      610.30586      2.2732261e+08  1.913053      -11585352      -11585352       1073.8581     -11584278      -1870.3518     -1876.1896     -1897.6079     -5.4322183     -13.73097      -25.449615      13223.825    
    156000   359.5363       0.078          0.18852436     0.18912881     0.19102809    -1870.8159      610.58907      610.58907      610.58907      2.2763921e+08  1.9103923     -11577214      -11577214       1070.6377     -11576143      -1860.5908     -1866.5562     -1885.3007     -3.433041      -11.589821     -22.163848      13314.586    
    157000   359.01262      0.0785         0.18756998     0.18840722     0.19009548    -1862.2343      610.87227      610.87227      610.87227      2.2795611e+08  1.9077365     -11569105      -11569105       1069.0783     -11568036      -1851.1718     -1859.4347     -1876.0965     -3.1786917     -10.588538     -18.623451      13226.656    
    158000   358.63156      0.079          0.18697025     0.18768357     0.18929198    -1855.2374      611.15548      611.15548      611.15548      2.282733e+08   1.9050857     -11561023      -11561023       1067.9435     -11559955      -1845.2529     -1852.2928     -1868.1666     -5.9193299     -10.75976      -16.063348      13240.935    
    159000   357.97186      0.0795         0.18658022     0.18678471     0.18858044    -1848.6566      611.43868      611.43868      611.43868      2.2859079e+08  1.9024397     -11552964      -11552964       1065.9791     -11551898      -1841.4036     -1843.4218     -1861.1443     -9.5847272     -10.562655     -16.81744       13231.376    
    160000   356.72457      0.08           0.18584429     0.18581635     0.187905      -1840.8278      611.72188      611.72188      611.72188      2.2890857e+08  1.8997987     -11544924      -11544924       1062.2649     -11543862      -1834.1405     -1833.8648     -1854.4781     -10.16094      -9.333147      -20.482008      13175.657    
    161000   355.32835      0.0805         0.18452398     0.18472236     0.18697264    -1829.8182      612.00509      612.00509      612.00509      2.2922665e+08  1.8971625     -11536916      -11536916       1058.1072     -11535858      -1821.1101     -1823.0679     -1845.2765     -7.4041014     -9.3772569     -23.331263      13161.347    
    162000   354.51143      0.081          0.18305745     0.18344446     0.18581466    -1816.9802      612.28829      612.28829      612.28829      2.2954502e+08  1.8945312     -11528954      -11528954       1055.6745     -11527898      -1806.6366     -1810.4561     -1833.8481     -3.8412834     -11.419151     -23.747449      13110.505    
    163000   353.73423      0.0815         0.1819544      0.18232417     0.18473226    -1806.1052      612.5715       612.5715       612.5715       2.2986368e+08  1.8919048     -11521033      -11521033       1053.3601     -11519980      -1795.7503     -1799.3996     -1823.1657     -2.3790234     -13.0055       -23.173213      13335.527    
    164000   352.26256      0.082          0.18125697     0.18157457     0.18401383    -1798.9814      612.8547       612.8547       612.8547       2.3018264e+08  1.8892832     -11513131      -11513131       1048.9778     -11512082      -1788.8672     -1792.0017     -1816.0753     -2.8989927     -13.344657     -21.495781      13198.308    
    165000   350.7556       0.0825         0.18072738     0.18108455     0.18333246    -1793.3856      613.13791      613.13791      613.13791      2.305019e+08   1.8866665     -11505246      -11505246       1044.4903     -11504201      -1783.6406     -1787.1655     -1809.3507     -3.5033306     -12.909784     -19.928544      13276.354    
    166000   350.0905       0.083          0.18028545     0.1805643      0.18237467    -1787.0694      613.42111      613.42111      613.42111      2.3082145e+08  1.8840546     -11497385      -11497385       1042.5097     -11496343      -1779.279      -1782.0311     -1799.898      -3.4084517     -12.009399     -18.661648      13197.573    
    167000   349.81557      0.0835         0.17997429     0.18001486     0.1814257     -1781.1164      613.70432      613.70432      613.70432      2.3114129e+08  1.8814475     -11489545      -11489545       1041.691      -11488503      -1776.2081     -1776.6085     -1790.5325     -3.874658      -10.462385     -17.202391      13306.302    
    168000   349.24565      0.084          0.17944849     0.17939733     0.18050273    -1774.3188      613.98752      613.98752      613.98752      2.3146143e+08  1.8788452     -11481719      -11481719       1039.9939     -11480679      -1771.0189     -1770.514      -1781.4235     -5.3111604     -8.3826585     -16.745759      13207.993    
    169000   348.91198      0.0845         0.17837218     0.17846283     0.17967106    -1764.9677      614.27073      614.27073      614.27073      2.3178187e+08  1.8762477     -11473917      -11473917       1039.0003     -11472878      -1760.3965     -1761.2912     -1773.2155     -6.3751063     -7.5442967     -17.16646       13261.603    
    170000   348.9066       0.085          0.17717164     0.17740874     0.17908086    -1755.609       614.55393      614.55393      614.55393      2.321026e+08   1.873655      -11466155      -11466155       1038.9843     -11465116      -1748.5481     -1750.8882     -1767.3907     -5.5795071     -8.9200591     -17.708975      13244.571    
    171000   348.5032       0.0855         0.17626394     0.17653683     0.17866429    -1748.3841      614.83714      614.83714      614.83714      2.3242363e+08  1.8710671     -11458424      -11458424       1037.783      -11457386      -1739.5898     -1742.283      -1763.2795     -4.1550559     -10.429761     -19.590528      13345.969    
    172000   347.19619      0.086          0.17561315     0.17583688     0.17803137    -1741.8584      615.12034      615.12034      615.12034      2.3274495e+08  1.8684839     -11450708      -11450708       1033.891      -11449674      -1733.167      -1735.3751     -1757.033      -3.609867      -10.74442      -21.681842      13283.925    
    173000   345.64759      0.0865         0.17501117     0.17500262     0.17713992    -1734.2009      615.40354      615.40354      615.40354      2.3306657e+08  1.8659055     -11443011      -11443011       1029.2795     -11441982      -1727.226      -1727.1416     -1748.2351     -3.5990808     -10.645561     -21.051664      13248.124    
    174000   344.67113      0.087          0.17432118     0.17431966     0.17597783    -1725.8612      615.68675      615.68675      615.68675      2.3338848e+08  1.8633319     -11435339      -11435339       1026.3718     -11434313      -1720.4163     -1720.4012     -1736.7662     -3.9822785     -9.8730635     -17.718186      13287.471    
    175000   344.33581      0.0875         0.173625       0.17387123     0.17475396    -1718.0696      615.96995      615.96995      615.96995      2.3371069e+08  1.8607629     -11427697      -11427697       1025.3733     -11426672      -1713.5455     -1715.9756     -1724.6875     -3.6388614     -10.246035     -14.953569      13261.502    
    176000   344.30373      0.088          0.17300514     0.17347468     0.17418612    -1712.8578      616.25316      616.25316      616.25316      2.340332e+08   1.8581987     -11420078      -11420078       1025.2777     -11419053      -1707.428      -1712.062      -1719.0833     -2.6604495     -11.02227      -14.349631      13215.837    
    177000   343.80624      0.0885         0.17259032     0.17302542     0.17404964    -1709.5662      616.53636      616.53636      616.53636      2.3435601e+08  1.8556392     -11412474      -11412474       1023.7963     -11411450      -1703.334      -1707.6281     -1717.7364     -2.6206693     -10.547624     -14.553195      13283.803    
    178000   343.1727       0.089          0.172168       0.17228965     0.173513      -1703.991       616.81957      616.81957      616.81957      2.3467911e+08  1.8530844     -11404879      -11404879       1021.9097     -11403857      -1699.1661     -1700.3666     -1712.4402     -3.9182084     -8.7633115     -16.002551      13269.91     
    179000   343.03278      0.0895         0.1715504      0.17142336     0.17273302    -1696.5434      617.10277      617.10277      617.10277      2.350025e+08   1.8505343     -11397305      -11397305       1021.493      -11396284      -1693.0708     -1691.817      -1704.7424     -5.0792507     -6.6900261     -18.064239      13297.589    
    180000   342.79363      0.09           0.17080828     0.17083294     0.17233464    -1690.8491      617.38598      617.38598      617.38598      2.353262e+08   1.8479889     -11389751      -11389751       1020.7809     -11388730      -1685.7467     -1685.99       -1700.8106     -5.2246325     -6.0657318     -18.668084      13287.487    
    181000   341.94661      0.0905         0.17016073     0.17028529     0.17214937    -1686.3077      617.66918      617.66918      617.66918      2.3565019e+08  1.8454481     -11382202      -11382202       1018.2586     -11381184      -1679.3558     -1680.5851     -1698.9822     -4.4058186     -6.2785798     -18.287669      13296.3      
    182000   341.05231      0.091          0.1694958      0.16957334     0.17136916    -1679.2115      617.95239      617.95239      617.95239      2.3597448e+08  1.842912      -11374670      -11374670       1015.5955     -11373655      -1672.7935     -1673.5588     -1691.2821     -2.557111      -6.0908215     -17.815445      13190.286    
    183000   340.53136      0.0915         0.1686683      0.16872947     0.1699532     -1669.0549      618.23559      618.23559      618.23559      2.3629907e+08  1.8403805     -11367175      -11367175       1014.0442     -11366161      -1664.6267     -1665.2304     -1677.3077     -1.0993109     -7.0254059     -17.605786      13367.296    
    184000   339.96675      0.092          0.16773031     0.16813161     0.1687509     -1660.0471      618.51879      618.51879      618.51879      2.3662395e+08  1.8378537     -11359719      -11359719       1012.3629     -11358706      -1655.3694     -1659.33       -1665.4419     -1.5294863     -9.6903325     -16.91276       13202.57     
    185000   339.1471       0.0925         0.16690859     0.16785255     0.16817435    -1654.5291      618.802        618.802        618.802        2.3694913e+08  1.8353315     -11352285      -11352285       1009.9221     -11351275      -1647.2597     -1656.5759     -1659.7518     -2.1569747     -10.602333     -15.865733      13220.526    
    186000   338.63957      0.093          0.16647734     0.16750556     0.16788514    -1651.0175      619.0852       619.0852       619.0852       2.3727461e+08  1.8328139     -11344861      -11344861       1008.4108     -11343853      -1643.0036     -1653.1514     -1656.8975     -2.0097222     -9.211228      -14.399713      13216.777    
    187000   338.64158      0.0935         0.16637197     0.16679924     0.16762778    -1647.5006      619.36841      619.36841      619.36841      2.3760039e+08  1.8303009     -11337442      -11337442       1008.4168     -11336433      -1641.9637     -1646.1805     -1654.3575     -3.3526601     -7.0195379     -13.172681      13279.265    
    188000   338.71544      0.094          0.16621047     0.16590116     0.16740415    -1643.2792      619.65161      619.65161      619.65161      2.3792647e+08  1.8277925     -11330033      -11330033       1008.6367     -11329024      -1640.3698     -1637.3171     -1652.1505     -6.2484166     -6.1223497     -13.1865        13128.976    
    189000   338.74281      0.0945         0.16580508     0.16501494     0.1668882     -1637.3328      619.93482      619.93482      619.93482      2.3825284e+08  1.8252886     -11322646      -11322646       1008.7182     -11321637      -1636.3689     -1628.5709     -1647.0585     -7.4094672     -6.2497361     -13.927881      13105.673    
    190000   338.80985      0.095          0.16531371     0.16430028     0.16628055    -1631.3662      620.21802      620.21802      620.21802      2.3857951e+08  1.8227894     -11315282      -11315282       1008.9179     -11314273      -1631.5194     -1621.5177     -1641.0614     -6.3502919     -6.6670135     -15.163206      13153.019    
    191000   338.2809       0.0955         0.16466999     0.16397156     0.16580445    -1626.6009      620.50123      620.50123      620.50123      2.3890648e+08  1.8202947     -11307935      -11307935       1007.3428     -11306928      -1625.1665     -1618.2735     -1636.3627     -5.2473219     -7.5624342     -15.835444      13225.706    
    192000   337.11377      0.096          0.16376077     0.16369127     0.16519007    -1620.6665      620.78443      620.78443      620.78443      2.3923375e+08  1.8178045     -11300599      -11300599       1003.8672     -11299595      -1616.1931     -1615.5072     -1630.2992     -3.5716008     -8.5216346     -15.042512      13155.55     
    193000   336.33829      0.0965         0.16275848     0.16317682     0.16440779    -1613.1034      621.06764      621.06764      621.06764      2.3956132e+08  1.8153189     -11293279      -11293279       1001.558      -11292277      -1606.3013     -1610.43       -1622.5788     -1.1617285     -9.0603967     -14.12582       13136.002    
    194000   336.3482       0.097          0.16198389     0.16281671     0.16371453    -1607.0898      621.35084      621.35084      621.35084      2.3988919e+08  1.8128379     -11285981      -11285981       1001.5875     -11284979      -1598.6567     -1606.8759     -1615.7368      0.62239985    -8.3868768     -14.270709      13142.612    
    195000   336.28199      0.0975         0.16161296     0.16269749     0.16335103    -1604.2815      621.63405      621.63405      621.63405      2.4021735e+08  1.8103613     -11278700      -11278700       1001.3903     -11277698      -1594.9959     -1605.6994     -1612.1493      0.58609479    -6.7045992     -14.773618      13265.925    
    196000   335.8379       0.098          0.1615326      0.16233951     0.16288338    -1601.3011      621.91725      621.91725      621.91725      2.4054582e+08  1.8078893     -11271427      -11271427       1000.0679     -11270427      -1594.2029     -1602.1664     -1607.5339     -0.84350167    -4.4433882     -14.561164      13166.314    
    197000   335.59073      0.0985         0.1614382      0.16139484     0.16198778    -1594.9365      622.20045      622.20045      622.20045      2.4087458e+08  1.8054217     -11264171      -11264171       999.3319      -11263172      -1593.2711     -1592.8432     -1598.695      -2.5128516     -3.2793966     -14.062088      13137.239    
    198000   335.3784       0.099          0.16110278     0.16052012     0.16108636    -1587.99        622.48366      622.48366      622.48366      2.4120364e+08  1.8029587     -11256937      -11256937       998.69962     -11255938      -1589.9608     -1584.2104     -1589.7988     -3.9757965     -4.1154625     -13.91784       13135.802    
    199000   334.69841      0.0995         0.16062504     0.16020666     0.16092515    -1584.8568      622.76686      622.76686      622.76686      2.4153301e+08  1.8005001     -11249709      -11249709       996.67471     -11248712      -1585.2459     -1581.1168     -1588.2077     -4.747048      -5.0427475     -12.183106      13239.988    
    200000   334.08388      0.1            0.16002073     0.15992503     0.16109767    -1582.5098      623.05007      623.05007      623.05007      2.4186267e+08  1.798046      -11242479      -11242479       994.84475     -11241484      -1579.2818     -1578.3374     -1589.9104     -4.9450162     -5.8875244     -10.233666      12586.404    
    201000   334.16434      0.1005         0.15924453     0.15931439     0.16085085    -1577.1355      623.33327      623.33327      623.33327      2.4219263e+08  1.7955963     -11235262      -11235262       995.08434     -11234267      -1571.6213     -1572.3108     -1587.4744     -3.8443215     -7.0137024     -10.959488      13260.51     
    202000   334.68908      0.101          0.15835293     0.15861955     0.15988669    -1568.7447      623.61648      623.61648      623.61648      2.425229e+08   1.7931511     -11228081      -11228081       996.64693     -11227084      -1562.8219     -1565.4532     -1577.9589     -1.4692372     -7.1535405     -13.083854      13261.772    
    203000   334.98284      0.1015         0.1576397      0.15809003     0.15889457    -1561.3926      623.89968      623.89968      623.89968      2.4285346e+08  1.7907103     -11220935      -11220935       997.52169     -11219937      -1555.7829     -1560.2273     -1568.1675      0.79988212    -6.4843468     -13.535052      13257.684    
    204000   334.36077      0.102          0.15716242     0.1577834      0.15848156    -1557.455       624.18289      624.18289      624.18289      2.4318432e+08  1.788274      -11213806      -11213806       995.66928     -11212811      -1551.0725     -1557.2011     -1564.0914      1.0450073     -5.6631327     -13.040646      13300.281    
    205000   333.34511      0.1025         0.15685419     0.15736438     0.15807949    -1553.7398      624.46609      624.46609      624.46609      2.4351548e+08  1.7858421     -11206681      -11206681       992.6448      -11205689      -1548.0305     -1553.0657     -1560.1233      0.28456023    -4.3399345     -12.261158      13295.231    
    206000   333.29411      0.103          0.15652338     0.15667458     0.15724299    -1547.6304      624.7493       624.7493       624.7493       2.4384695e+08  1.7834146     -11199568      -11199568       992.49294     -11198575      -1544.7657     -1546.2579     -1551.8677     -1.2250085     -2.7072928     -12.307591      13206.32     
    207000   333.85978      0.1035         0.15615286     0.15602466     0.15655458    -1542.0087      625.0325       625.0325       625.0325       2.4417871e+08  1.7809914     -11192481      -11192481       994.17742     -11191487      -1541.1089     -1539.8436     -1545.0736     -3.1964553     -3.6168023     -13.107706      13306.843    
    208000   333.55512      0.104          0.1558728      0.15577318     0.15640755    -1539.7764      625.3157       625.3157       625.3157       2.4451078e+08  1.7785727     -11185404      -11185404       993.27018     -11184411      -1538.3449     -1537.3618     -1543.6225     -4.9272015     -5.8756086     -12.615814      13319.649    
    209000   332.52286      0.1045         0.15544535     0.15550859     0.15627463    -1537.0625      625.59891      625.59891      625.59891      2.4484314e+08  1.7761584     -11178328      -11178328       990.1963      -11177337      -1534.1263     -1534.7505     -1542.3107     -5.3039246     -6.2744178     -9.7918033      13276.338    
    210000   332.29228      0.105          0.15477436     0.15504807     0.15581787    -1531.8375      625.88211      625.88211      625.88211      2.4517581e+08  1.7737484     -11171264      -11171264       989.50967     -11170275      -1527.5042     -1530.2054     -1537.8028     -3.5304715     -4.5247826     -8.3765259      13161.209    
    211000   332.63221      0.1055         0.15421434     0.15451222     0.15526044    -1526.3985      626.16532      626.16532      626.16532      2.4550878e+08  1.7713428     -11164224      -11164224       990.52193     -11163234      -1521.9772     -1524.917      -1532.3014     -1.2033715     -2.5393113     -9.8141849      13157.342    
    212000   332.67346      0.106          0.15381939     0.1541303      0.15473645    -1522.1191      626.44852      626.44852      626.44852      2.4584205e+08  1.7689415     -11157196      -11157196       990.64477     -11156205      -1518.0794     -1521.1478     -1527.1301      0.34895182    -2.5424747     -10.413302      13119.031    
    213000   332.44856      0.1065         0.15350943     0.15381805     0.15424712    -1518.4624      626.73173      626.73173      626.73173      2.4617562e+08  1.7665445     -11150175      -11150175       989.97503     -11149185      -1515.0203     -1518.0661     -1522.3007      1.321507      -4.6799402     -10.796376      13322.256    
    214000   332.20549      0.107          0.15335847     0.15342321     0.15378158    -1515.1353      627.01493      627.01493      627.01493      2.4650949e+08  1.7641519     -11143167      -11143167       989.25123     -11142178      -1513.5304     -1514.1694     -1517.7062      1.1221598     -6.7057313     -12.099326      13196.502    
    215000   332.14672      0.1075         0.15315642     0.15280176     0.15330417    -1510.8556      627.29814      627.29814      627.29814      2.4684367e+08  1.7617636     -11136171      -11136171       989.07622     -11135182      -1511.5363     -1508.0361     -1512.9945     -0.63823356    -7.2950817     -12.92025       13146.267    
    216000   332.20685      0.108          0.15271625     0.15206969     0.15290059    -1505.6716      627.58134      627.58134      627.58134      2.4717815e+08  1.7593797     -11129191      -11129191       989.25527     -11128202      -1507.1922     -1500.8112     -1509.0115     -2.5036989     -6.0907661     -12.113078      13255.72     
    217000   332.41325      0.1085         0.15202498     0.1514159      0.15248499    -1499.8795      627.86455      627.86455      627.86455      2.4751292e+08  1.757         -11122230      -11122230       989.86991     -11121240      -1500.3699     -1494.3588     -1504.9098     -3.5785224     -4.7534707     -10.707295      13209.864    
[...]
   3017000   323.2345       1.5085         0.0064581474   0.0063775567   0.0061326915  -62.40117       1420.8374      1420.8374      1420.8374      2.8683563e+09  0.15161303    -3064930.3     -3064930.3      962.53715     -3063967.7     -63.73696      -62.941591     -60.524959      0.64795085     1.0314665      1.2648541      13246.042    
   3018000   323.32252      1.509          0.0064590459   0.0063730269   0.0061248281  -62.363355      1421.1206      1421.1206      1421.1206      2.8700719e+09  0.15152241    -3063518.2     -3063518.2      962.79925     -3062555.4     -63.745826     -62.896885     -60.447354      0.68053701     1.0892969      1.2477022      13169.154    
   3019000   323.36903      1.5095         0.006456859    0.0063685508   0.0061196591  -62.324431      1421.4038      1421.4038      1421.4038      2.8717881e+09  0.15143186    -3062106.6     -3062106.6      962.93775     -3061143.6     -63.724244     -62.85271      -60.39634       0.70076498     1.1252643      1.2139874      13234.238    
   3020000   323.35817      1.51           0.0064480226   0.0063628344   0.0061157266  -62.263619      1421.687       1421.687       1421.687       2.873505e+09   0.15134138    -3060695.3     -3060695.3      962.90542     -3059732.4     -63.637035     -62.796294     -60.357529      0.69846116     1.1187516      1.1932513      13167.383    
   3021000   323.30826      1.5105         0.0064354016   0.0063569937   0.0061123979  -62.191934      1421.9702      1421.9702      1421.9702      2.8752225e+09  0.15125097    -3059285       -3059285        962.75678     -3058322.3     -63.512476     -62.73865      -60.324677      0.68267784     1.0864277      1.214803       13282.28     
   3022000   323.24192      1.511          0.0064237427   0.0063524236   0.0061102536  -62.131491      1422.2534      1422.2534      1422.2534      2.8769408e+09  0.15116063    -3057875.8     -3057875.8      962.55925     -3056913.2     -63.397412     -62.693547     -60.303515      0.66704357     1.0653613      1.2647996      13418.218    
   3023000   323.17827      1.5115         0.0064163855   0.0063484336   0.0061106456  -62.095451      1422.5366      1422.5366      1422.5366      2.8786597e+09  0.15107037    -3056467       -3056467        962.36969     -3055504.6     -63.324802     -62.654168     -60.307383      0.65829374     1.0828331      1.3106515      13435.294    
   3024000   323.13368      1.512          0.0064130902   0.0063448407   0.006112234   -62.078016      1422.8198      1422.8198      1422.8198      2.8803794e+09  0.15098018    -3055058.2     -3055058.2      962.23692     -3054095.9     -63.29228      -62.618709     -60.32306       0.64848068     1.1221249      1.3244858      13383.659    
   3025000   323.12021      1.5125         0.0064121467   0.0063403448   0.0061119007  -62.059025      1423.103       1423.103       1423.103       2.8820997e+09  0.15089006    -3053649.1     -3053649.1      962.1968      -3052686.9     -63.282967     -62.574338     -60.31977       0.64116766     1.1380096      1.3043066      13600.607    
   3026000   323.12866      1.513          0.0064110962   0.0063333627   0.0061076908  -62.018751      1423.3862      1423.3862      1423.3862      2.8838207e+09  0.15080001    -3052240       -3052240        962.22197     -3051277.8     -63.2726       -62.50543      -60.278222      0.65124337     1.1008171      1.2756915      13346.906    
   3027000   323.13752      1.5135         0.0064066576   0.0063250538   0.0060994921  -61.949843      1423.6694      1423.6694      1423.6694      2.8855424e+09  0.15071004    -3050831.7     -3050831.7      962.24836     -3049869.5     -63.228795     -62.423428     -60.197307      0.67365279     1.0196427      1.2584826      13507.79     
   3028000   323.13571      1.514          0.0064005211   0.0063185565   0.0060912167  -61.881057      1423.9526      1423.9526      1423.9526      2.8872647e+09  0.15062013    -3049424.8     -3049424.8      962.24296     -3048462.5     -63.168232     -62.359304     -60.115634      0.69125838     0.92647699     1.2592908      13476.214    
   3029000   323.12436      1.5145         0.0063955325   0.0063149178   0.0060857595  -61.834723      1424.2358      1424.2358      1424.2358      2.8889878e+09  0.1505303     -3048018.7     -3048018.7      962.20915     -3047056.5     -63.118999     -62.323393     -60.061777      0.69122284     0.86767143     1.2769311      13662.025    
   3030000   323.11013      1.515          0.0063931922   0.0063125841   0.0060836518  -61.812412      1424.519       1424.519       1424.519       2.8907115e+09  0.15044054    -3046612.8     -3046612.8      962.16679     -3045650.6     -63.095901     -62.300361     -60.040975      0.6780397      0.86026203     1.2926219      13726.154    
   3031000   323.08922      1.5155         0.0063931965   0.0063089145   0.0060829216  -61.797952      1424.8022      1424.8022      1424.8022      2.892436e+09   0.15035085    -3045206.5     -3045206.5      962.10454     -3044244.3     -63.095943     -62.264145     -60.033769      0.66846675     0.89214177     1.2900996      13626.531    
   3032000   323.05987      1.516          0.0063937724   0.0063035901   0.0060803427  -61.773847      1425.0854      1425.0854      1425.0854      2.8941611e+09  0.15026123    -3043799.8     -3043799.8      962.01714     -3042837.7     -63.101627     -62.211597     -60.008317      0.6759692      0.9460509      1.2750876      13473.579    
   3033000   323.02632      1.5165         0.0063906529   0.006296677    0.0060748318  -61.722713      1425.3686      1425.3686      1425.3686      2.8958869e+09  0.15017168    -3042393.2     -3042393.2      961.91722     -3041431.3     -63.07084      -62.14337      -59.953929      0.70611857     0.99681753     1.2524279      13659.339    
   3034000   322.99737      1.517          0.006382968    0.0062885915   0.0060665216  -61.643494      1425.6518      1425.6518      1425.6518      2.8976134e+09  0.1500822     -3040987.7     -3040987.7      961.83103     -3040025.9     -62.994996     -62.063573     -59.871913      0.74372648     1.0260366      1.2277009      13596.154    
   3035000   322.98624      1.5175         0.0063736786   0.0062815371   0.0060564937  -61.556738      1425.935       1425.935       1425.935       2.8993405e+09  0.1499928     -3039584       -3039584        961.79788     -3038622.2     -62.903317     -61.993951     -59.772946      0.75943166     1.0302595      1.2129273      13667.698    
   3036000   322.98951      1.518          0.006367651    0.0062770287   0.0060457265  -61.486656      1426.2182      1426.2182      1426.2182      2.9010684e+09  0.14990346    -3038181.6     -3038181.6      961.80761     -3037219.8     -62.843829     -61.949456     -59.666681      0.74277143     1.0118272      1.2192149      13584.476    
   3037000   322.99867      1.5185         0.0063679497   0.0062741858   0.0060374303  -61.450993      1426.5015      1426.5015      1426.5015      2.9027969e+09  0.1498142     -3036780       -3036780        961.83489     -3035818.2     -62.846777     -61.921399     -59.584804      0.7091054      0.98050535     1.2422706      13666.215    
   3038000   323.0126       1.519          0.0063748852   0.0062730608   0.0060316159  -61.450981      1426.7847      1426.7847      1426.7847      2.9045261e+09  0.14972501    -3035378.2     -3035378.2      961.87638     -3034416.3     -62.915225     -61.910297     -59.527421      0.67681313     0.9519759      1.2603556      13544.393    
   3039000   323.02111      1.5195         0.006383416    0.0062720582   0.0060273227  -61.461623      1427.0679      1427.0679      1427.0679      2.9062561e+09  0.14963589    -3033975.3     -3033975.3      961.90171     -3033013.4     -62.999417     -61.900402     -59.48505       0.66169235     0.94084303     1.2609376      13648.225    
   3040000   323.0214       1.52           0.0063863181   0.0062673318   0.0060227332  -61.440523      1427.3511      1427.3511      1427.3511      2.9079867e+09  0.14954683    -3032571.7     -3032571.7      961.90257     -3031609.8     -63.028059     -61.853756     -59.439756      0.6691324      0.95064439     1.2440631      13653.752    
   3041000   323.02679      1.5205         0.0063812227   0.0062598173   0.0060162315  -61.377651      1427.6343      1427.6343      1427.6343      2.9097179e+09  0.14945785    -3031168.7     -3031168.7      961.91863     -3030206.8     -62.977772     -61.779594     -59.375588      0.69542051     0.97188357     1.2224367      13581.59     
   3042000   323.03369      1.521          0.0063729975   0.0062546843   0.0060103623  -61.314398      1427.9175      1427.9175      1427.9175      2.9114499e+09  0.14936894    -3029767.1     -3029767.1      961.93917     -3028805.1     -62.896596     -61.728934     -59.317664      0.73561142     0.9826456      1.2129844      13666.266    
   3043000   323.0266       1.5215         0.0063628165   0.0062531414   0.0060079036  -61.267741      1428.2007      1428.2007      1428.2007      2.9131826e+09  0.1492801     -3028366.1     -3028366.1      961.91806     -3027404.2     -62.796117     -61.713708     -59.293399      0.76736174     0.96652635     1.2216184      13664.285    
   3044000   323.01653      1.522          0.0063482472   0.0062519314   0.0060082021  -61.216813      1428.4839      1428.4839      1428.4839      2.9149159e+09  0.14919133    -3026965.6     -3026965.6      961.88806     -3026003.7     -62.652329     -61.701766     -59.296345      0.77175642     0.93838618     1.2436471      13671.551    
   3045000   323.02377      1.5225         0.006330764    0.0062483995   0.006009705   -61.152623      1428.7671      1428.7671      1428.7671      2.91665e+09    0.14910264    -3025565.9     -3025565.9      961.90962     -3024604       -62.479783     -61.666909     -59.311177      0.74223525     0.92086478     1.2565167      13580.847    
   3046000   323.04116      1.523          0.006316444    0.0062420388   0.0060118195  -61.091545      1429.0503      1429.0503      1429.0503      2.9183847e+09  0.14901401    -3024167.3     -3024167.3      961.96141     -3023205.3     -62.338456     -61.604133     -59.332046      0.69433028     0.92171845     1.2524418      13560.693    
   3047000   323.04389      1.5235         0.0063068893   0.0062337426   0.0060125289  -61.035154      1429.3335      1429.3335      1429.3335      2.9201201e+09  0.14892545    -3022769.4     -3022769.4      961.96953     -3021807.5     -62.244158     -61.522256     -59.339047      0.65471692     0.94472213     1.2412058      13368.788    
   3048000   323.02359      1.524          0.0063013698   0.0062244885   0.0060103091  -60.97925       1429.6167      1429.6167      1429.6167      2.9218562e+09  0.14883696    -3021372.2     -3021372.2      961.9091      -3020410.3     -62.189685     -61.430925     -59.317139      0.63419536     0.98615441     1.2338014      13565.104    
   3049000   322.98606      1.5245         0.0062985517   0.0062148667   0.0060045421  -60.919354      1429.8999      1429.8999      1429.8999      2.923593e+09   0.14874854    -3019975.7     -3019975.7      961.79732     -3019013.9     -62.161872     -61.335966     -59.260223      0.63453723     1.0310243      1.235774       13345.419    
   3050000   322.94485      1.525          0.0062966793   0.0062052548   0.0059948614  -60.849726      1430.1831      1430.1831      1430.1831      2.9253305e+09  0.1486602     -3018580.2     -3018580.2      961.67462     -3017618.6     -62.143393     -61.241103     -59.164682      0.6616152      1.0715411      1.2440789      12978.23     
   3051000   322.91627      1.5255         0.0062952135   0.0061967951   0.0059829064  -60.777745      1430.4663      1430.4663      1430.4663      2.9270686e+09  0.14857192    -3017186.1     -3017186.1      961.5895      -3016224.5     -62.128927     -61.157613     -59.046696      0.69699699     1.0947802      1.2402382      13461.184    
   3052000   322.9064       1.526          0.0062937795   0.0061906628   0.005973481   -60.721847      1430.7495      1430.7495      1430.7495      2.9288075e+09  0.14848371    -3015792.9     -3015792.9      961.56012     -3014831.3     -62.114774     -61.097091     -58.953674      0.70575975     1.0799016      1.219175       13493.557    
   3053000   322.91369      1.5265         0.0062892158   0.0061862448   0.0059678501  -60.673775      1431.0327      1431.0327      1431.0327      2.930547e+09   0.14839557    -3014400.3     -3014400.3      961.58184     -3013438.7     -62.069734     -61.053489     -58.898101      0.68760866     1.0216372      1.1925541      13402.68     
   3054000   322.94397      1.527          0.0062808863   0.0061828426   0.005963959   -60.62238       1431.3159      1431.3159      1431.3159      2.9322873e+09  0.1483075     -3013008.5     -3013008.5      961.672       -3012046.8     -61.987528     -61.019912     -58.859699      0.66457408     0.95434378     1.1799204      13350.887    
   3055000   322.99877      1.5275         0.0062733033   0.0061819246   0.0059611003  -60.585009      1431.5991      1431.5991      1431.5991      2.9340282e+09  0.1482195     -3011617.4     -3011617.4      961.83519     -3010655.6     -61.91269      -61.010852     -58.831485      0.64904334     0.90709423     1.1863395      13276.028    
   3056000   323.05759      1.528          0.0062699256   0.0061823933   0.0059585285  -60.566979      1431.8823      1431.8823      1431.8823      2.9357698e+09  0.14813157    -3010226.5     -3010226.5      962.01035     -3009264.4     -61.879354     -61.015478     -58.806104      0.64748696     0.89193722     1.2021626      13418.432    
   3057000   323.10764      1.5285         0.0062688619   0.006181731    0.0059552346  -60.550465      1432.1655      1432.1655      1432.1655      2.9375121e+09  0.14804371    -3008835.4     -3008835.4      962.15937     -3007873.2     -61.868857     -61.008941     -58.773596      0.65993287     0.8984752      1.2154949      13140.673    
   3058000   323.14053      1.529          0.0062683708   0.0061820711   0.0059527954  -60.541944      1432.4487      1432.4487      1432.4487      2.9392551e+09  0.14795592    -3007444.1     -3007444.1      962.25733     -3006481.8     -61.86401      -61.012298     -58.749523      0.68430659     0.90404765     1.2118679      13494.318    
   3059000   323.14883      1.5295         0.0062660289   0.0061816263   0.0059504737  -60.525138      1432.732       1432.732       1432.732       2.9409987e+09  0.1478682     -3006052.4     -3006052.4      962.28204     -3005090.1     -61.840897     -61.007908     -58.726609      0.70877008     0.89648021     1.184758       13567.22     
   3060000   323.13253      1.53           0.0062600072   0.006177089    0.0059448288  -60.471832      1433.0152      1433.0152      1433.0152      2.9427431e+09  0.14778055    -3004660.8     -3004660.8      962.23349     -3003698.6     -61.781468     -60.963129     -58.670898      0.72415979     0.8856797      1.1426754      13721.962    
   3061000   323.10388      1.5305         0.0062528753   0.0061700653   0.0059359608  -60.39609       1433.2984      1433.2984      1433.2984      2.9444882e+09  0.14769297    -3003270.2     -3003270.2      962.14819     -3002308.1     -61.711081     -60.89381      -58.583379      0.72242146     0.89119704     1.1072815      13557.916    
   3062000   323.08053      1.531          0.0062458762   0.0061622798   0.0059269852  -60.317925      1433.5816      1433.5816      1433.5816      2.9462339e+09  0.14760546    -3001881       -3001881        962.07865     -3000918.9     -61.642005     -60.816974     -58.494796      0.70921088     0.90555254     1.0929931      13576.526    
   3063000   323.07249      1.5315         0.0062390271   0.0061541123   0.0059201882  -60.246163      1433.8648      1433.8648      1433.8648      2.9479803e+09  0.14751801    -3000493.3     -3000493.3      962.0547      -2999531.3     -61.57441      -60.736366     -58.427714      0.70000547     0.90816418     1.1012776      13623.092    
   3064000   323.0683       1.532          0.0062342689   0.0061479239   0.0059161707  -60.196936      1434.148       1434.148       1434.148       2.9497275e+09  0.14743064    -2999106.8     -2999106.8      962.04223     -2998144.8     -61.52745      -60.675292     -58.388065      0.70328659     0.89420637     1.1213434      13595.222    
   3065000   323.05301      1.5325         0.0062330591   0.0061441659   0.0059142     -60.17411       1434.4312      1434.4312      1434.4312      2.9514753e+09  0.14734333    -2997720.5     -2997720.5      961.9967      -2996758.5     -61.51551      -60.638203     -58.368616      0.72092866     0.86863683     1.1339284      13561.062    
   3066000   323.02947      1.533          0.0062330035   0.0061404074   0.0059120759  -60.154574      1434.7144      1434.7144      1434.7144      2.9532238e+09  0.14725609    -2996333.7     -2996333.7      961.92661     -2995371.8     -61.514962     -60.601109     -58.347652      0.73917259     0.8522498      1.150361       13593.018    
   3067000   323.0145       1.5335         0.0062277032   0.0061339498   0.0059056898  -60.094886      1434.9976      1434.9976      1434.9976      2.954973e+09   0.14716893    -2994947       -2994947        961.88202     -2993985.1     -61.462652     -60.537378     -58.284627      0.74677142     0.861068       1.1783874      13752.526    
   3068000   323.01609      1.534          0.0062163505   0.0061245975   0.0058964736  -59.996452      1435.2808      1435.2808      1435.2808      2.9567229e+09  0.14708183    -2993561.8     -2993561.8      961.88675     -2992599.9     -61.350609     -60.445078     -58.193669      0.7549282      0.87921329     1.1962226      13593.894    
   3069000   323.01715      1.5345         0.006204575    0.0061145884   0.0058893346  -59.901301      1435.564       1435.564       1435.564       2.9584734e+09  0.1469948     -2992178.8     -2992178.8      961.88993     -2991216.9     -61.234395     -60.346295     -58.123213      0.77379038     0.87302        1.1919801      13614.478    
   3070000   322.99655      1.535          0.0061988579   0.0061072806   0.005884703   -59.843216      1435.8472      1435.8472      1435.8472      2.9602247e+09  0.14690783    -2990797.3     -2990797.3      961.82857     -2989835.5     -61.177971     -60.274173     -58.077503      0.79060399     0.83829539     1.180075       13497.102    
   3071000   322.95174      1.5355         0.0061986587   0.0061036765   0.005880616   -59.817259      1436.1304      1436.1304      1436.1304      2.9619767e+09  0.14682094    -2989416       -2989416        961.69512     -2988454.3     -61.176005     -60.238603     -58.037168      0.79716246     0.79361833     1.1693992      13424.726    
   3072000   322.90332      1.536          0.0062005614   0.0061017697   0.0058775321  -59.8071        1436.4136      1436.4136      1436.4136      2.9637293e+09  0.14673412    -2988034.3     -2988034.3      961.55095     -2987072.7     -61.194783     -60.219785     -58.006732      0.7916758      0.76468249     1.1555776      13581.663    
   3073000   322.88518      1.5365         0.0062025303   0.0061007129   0.0058764273  -59.806466      1436.6968      1436.6968      1436.6968      2.9654827e+09  0.14664736    -2986652       -2986652        961.49694     -2985690.5     -61.214215     -60.209355     -57.995829      0.77830926     0.76909887     1.1306108      13588.539    
   3074000   322.91987      1.537          0.0062037402   0.0061015778   0.0058759502  -59.811722      1436.98        1436.98        1436.98        2.9672367e+09  0.14656067    -2985269.2     -2985269.2      961.60022     -2984307.6     -61.226155     -60.21