LAMMPS (23 Jun 2022 - Update 1)
OMP_NUM_THREADS environment is not set. Defaulting to 1 thread. (src/comm.cpp:98)
  using 1 OpenMP thread(s) per MPI task
###

# Read restart info
read_restart ${read_res}
read_restart ./trial7/0100/equpmf186.res
Reading restart file ...
  restart file = 23 Jun 2022, LAMMPS = 23 Jun 2022
  restoring atom style atomic from restart
  orthogonal box = (1624.2762 1624.2762 1624.2762) to (2375.7238 2375.7238 2375.7238)
  1 by 2 by 2 MPI processor grid
  restoring pair style table from restart
  1000 atoms
  read_restart CPU = 0.045 seconds

# Settings
pair_style table/pgn spline 10941
pair_coeff 1 1 N20e.txt DE_GNP 308 72.9   # 1.35 * r
pair_coeff 2 2 N100e.txt DE_GNP 473.9 111.78
WARNING: 20 of 10941 force values in table DE_GNP are inconsistent with -dE/dr.
WARNING:  Should only be flagged at inflection points (src/pair_table_pgn.cpp:478)
pair_coeff 1 2 mixed_potentiale.txt DE_GNP 391.2 92.95
WARNING: 1564 of 10941 force values in table DE_GNP are inconsistent with -dE/dr.
WARNING:  Should only be flagged at inflection points (src/pair_table_pgn.cpp:478)

# Neighbor list
neighbor 2.0 bin
neigh_modify delay 0 every 1 check no once yes

# Temperature
variable T equal ${Temp}
variable T equal 300

# Deformation
reset_timestep 0
variable tmp equal "lx"
variable L0 equal ${tmp}
variable L0 equal 751.447530307258
variable strain equal "(lx - v_L0)/v_L0"
variable stp equal "step"
variable tmpe equal "temp"
variable p1 equal "v_strain"
variable p2 equal "-pxx*1.01325/10000"
variable p3 equal "-pyy*1.01325/10000"
variable p4 equal "-pzz*1.01325/10000"
variable p5 equal "lx"
variable p6 equal "ly"
variable p7 equal "lz"
variable p8 equal "press"
variable p9 equal "epair"
variable p10 equal "etotal"

# Thermo
thermo_style custom step temp v_p1 v_p2 v_p3 v_p4 press lx ly lz vol density epair pe ke etotal pxx pyy pzz pxy pxz pyz spcpu
thermo ${ts_save}
thermo 1000

# Dump
# dump 1 all custom 2000 ./${N20}${N100}/tensile/trajectory/trajectory_${usic}_${trial}_*.tensile.custom id type x y z ix iy iz
# dump_modify 1 sort id
dump 2 all cfg 50000 ./trial${trial}/${N20}${N100}/tensile/trajectory/dumpten.tens_${usic}_${trial}_*.cfg mass type xs ys zs fx fy fz
dump 2 all cfg 50000 ./trial7/${N20}${N100}/tensile/trajectory/dumpten.tens_${usic}_${trial}_*.cfg mass type xs ys zs fx fy fz
dump 2 all cfg 50000 ./trial7/0${N100}/tensile/trajectory/dumpten.tens_${usic}_${trial}_*.cfg mass type xs ys zs fx fy fz
dump 2 all cfg 50000 ./trial7/0100/tensile/trajectory/dumpten.tens_${usic}_${trial}_*.cfg mass type xs ys zs fx fy fz
dump 2 all cfg 50000 ./trial7/0100/tensile/trajectory/dumpten.tens_1_${trial}_*.cfg mass type xs ys zs fx fy fz
dump 2 all cfg 50000 ./trial7/0100/tensile/trajectory/dumpten.tens_1_7_*.cfg mass type xs ys zs fx fy fz
dump_modify 2 element N20 N100

fix 1 all nvt temp ${T} ${T} 100
fix 1 all nvt temp 300 ${T} 100
fix 1 all nvt temp 300 300 100
fix 2 all deform 1 x erate ${strain_rate} y erate ${strain_rate} z erate ${strain_rate} units box
fix 2 all deform 1 x erate 5e-6 y erate ${strain_rate} z erate ${strain_rate} units box
fix 2 all deform 1 x erate 5e-6 y erate 5e-6 z erate ${strain_rate} units box
fix 2 all deform 1 x erate 5e-6 y erate 5e-6 z erate 5e-6 units box
fix             def1 all print ${ts_save} "${p1} ${p2} ${p3} ${p4}" file ./tensile/${trial}/tensile${N20}${N100}_${usic}_${trial}.txt screen no
fix             def1 all print 1000 "${p1} ${p2} ${p3} ${p4}" file ./tensile/${trial}/tensile${N20}${N100}_${usic}_${trial}.txt screen no
fix             def1 all print 1000 "${p1} ${p2} ${p3} ${p4}" file ./tensile/7/tensile${N20}${N100}_${usic}_${trial}.txt screen no
fix             def1 all print 1000 "${p1} ${p2} ${p3} ${p4}" file ./tensile/7/tensile0${N100}_${usic}_${trial}.txt screen no
fix             def1 all print 1000 "${p1} ${p2} ${p3} ${p4}" file ./tensile/7/tensile0100_${usic}_${trial}.txt screen no
fix             def1 all print 1000 "${p1} ${p2} ${p3} ${p4}" file ./tensile/7/tensile0100_1_${trial}.txt screen no
fix             def1 all print 1000 "${p1} ${p2} ${p3} ${p4}" file ./tensile/7/tensile0100_1_7.txt screen no

timestep       		${ts}
timestep       		0.1
run				${steps_tensile}
run				6000000
Generated 0 of 1 mixed pair_coeff terms from geometric mixing rule
Unused restart file global fix info:
  fix style: npt, fix ID: 5
Neighbor list info ...
  update every 1 steps, delay 0 steps, check no
  max neighbors/atom: 2000, page size: 100000
  master list distance cutoff = 113.78
  ghost atom cutoff = 113.78
  binsize = 56.89, bins = 14 14 14
  1 neighbor lists, perpetual/occasional/extra = 1 0 0
  (1) pair table/pgn, perpetual
      attributes: half, newton on
      pair build: half/bin/atomonly/newton
      stencil: half/bin/3d
      bin: standard
Per MPI rank memory allocation (min/avg/max) = 3.842 | 3.844 | 3.846 Mbytes
   Step          Temp           v_p1           v_p2           v_p3           v_p4          Press            Lx             Ly             Lz           Volume        Density         E_pair         PotEng         KinEng         TotEng          Pxx            Pyy            Pzz            Pxy            Pxz            Pyz           S/CPU     
         0   296.94119      4.5387136e-16  0.074751012   -0.089598553   -0.00090955416  51.836814      751.44753      751.44753      751.44753      4.2432242e+08  1.65165       -56496700      -56496700       884.24015     -56495815      -737.73513      884.26897      8.9766016      7.4808358      5.1040091     -853.44824      0            
      1000   302.34439      0.0005         0.08549056    -0.076635725    0.010226147   -62.771551      751.82325      751.82325      751.82325      4.2495923e+08  1.649175      -56496670      -56496670       900.32996     -56495769      -843.72623      756.3358      -100.92423      7.4958809      5.0635011     -843.90157      13963.599    
      2000   307.29523      0.001          0.096427745   -0.063760638    0.021130623   -176.98077      752.19898      752.19898      752.19898      4.2559667e+08  1.6467049     -56495585      -56495585       915.07271     -56494670      -951.66785      629.26857     -208.54304      7.5543228      4.9880614     -834.70272      14049.539    
      3000   296.57189      0.0015         0.10746015    -0.05088176     0.031752551   -290.58621      752.5747       752.5747       752.5747       4.2623474e+08  1.6442398     -56493456      -56493456       883.14045     -56492573      -1060.5492      502.16393     -313.37331      7.6322511      4.8266226     -825.69768      14067.132    
      4000   297.87029      0.002          0.11836246    -0.037996318    0.04209155    -402.85447      752.95043      752.95043      752.95043      4.2687345e+08  1.6417796     -56490295      -56490295       887.00685     -56489408      -1168.1466      374.99451     -415.4113       7.5833645      4.5954307     -816.66853      14087.768    
      5000   305.52081      0.0025         0.12883432    -0.025269123    0.052244133   -512.57283      753.32615      753.32615      753.32615      4.2751281e+08  1.6393243     -56486115      -56486115       909.78882     -56485205      -1271.4958      249.38686     -515.6095       7.3635279      4.4378381     -807.55983      13829.924    
      6000   300.73394      0.003          0.13862058    -0.01295743     0.062367017   -618.57116      753.70187      753.70187      753.70187      4.2815279e+08  1.6368738     -56480920      -56480920       895.53433     -56480025      -1368.0788      127.87989     -615.5146       7.0383073      4.4530004     -798.28343      14667.398    
      7000   306.57572      0.0035         0.14765601    -0.0012367093   0.072581417   -720.45633      754.0776       754.0776       754.0776       4.2879342e+08  1.6344283     -56474724      -56474724       912.93013     -56473811      -1457.2515      12.205372     -716.32289      6.7868046      4.598484      -788.80458      16563.863    
      8000   312.81226      0.004          0.15610623     0.009884278    0.082898977   -818.78274      754.45332      754.45332      754.45332      4.2943469e+08  1.6319877     -56467557      -56467557       931.50148     -56466625      -1540.6487     -97.550239     -818.14929      6.7190392      4.776288      -779.15418      16558.877    
      9000   315.15085      0.0045         0.16429786     0.020573154    0.09324334    -914.9251       754.82904      754.82904      754.82904      4.3007659e+08  1.6295519     -56459452      -56459452       938.4654      -56458514      -1621.4938     -203.04125     -920.24022      6.8011367      4.9054119     -769.27886      15441.243    
     10000   318.41873      0.005          0.17261822     0.031062036    0.1035052     -1010.5616      755.20477      755.20477      755.20477      4.3071914e+08  1.6271209     -56450443      -56450443       948.19661     -56449495      -1703.6094     -306.55846     -1021.5169      6.9796382      4.9870058     -759.18513      16566.01     
     11000   320.93551      0.0055         0.18133217     0.041495314    0.11355379    -1106.6084      755.58049      755.58049      755.58049      4.3136232e+08  1.6246948     -56440551      -56440551       955.69114     -56439595      -1789.6094     -409.52691     -1120.6888      7.1442317      4.9187028     -748.9435       16517.984    
     12000   323.64948      0.006          0.19039444     0.051866716    0.12327784    -1202.5298      755.95622      755.95622      755.95622      4.3200615e+08  1.6222735     -56429795      -56429795       963.77287     -56428831      -1879.0471     -511.88469     -1216.6577      7.1533169      4.5534986     -738.49013      16567.218    
     13000   326.56491      0.0065         0.19935743     0.0620903      0.13259787    -1296.3092      756.33194      756.33194      756.33194      4.3265061e+08  1.619857      -56418190      -56418190       972.45455     -56417217      -1967.5048     -612.78362     -1308.6392      7.0601895      3.9154434     -727.59032      16339.017    
     14000   329.59931      0.007          0.20761288     0.072118155    0.14147609    -1385.6637      756.70766      756.70766      756.70766      4.3329572e+08  1.6174453     -56405748      -56405748       981.49045     -56404767      -2048.9798     -711.75085     -1396.2604      6.9815514      3.1865142     -715.85355      16467.456    
     15000   332.66725      0.0075         0.21486513     0.081985797    0.14998633    -1469.9803      757.08339      757.08339      757.08339      4.3394146e+08  1.6150384     -56392483      -56392483       990.62627     -56391492      -2120.554      -809.1369      -1480.25        6.9113866      2.5834271     -702.98089      16559.935    
     16000   335.72629      0.008          0.22141942     0.091707471    0.1583199     -1550.9394      757.45911      757.45911      757.45911      4.3458785e+08  1.6126362     -56378408      -56378408       999.73555     -56377409      -2185.2398     -905.08237     -1562.4959      6.8581812      2.3797837     -689.03393      16543.118    
     17000   338.81576      0.0085         0.22799527     0.10123158     0.166672      -1631.3804      757.83483      757.83483      757.83483      4.3523488e+08  1.6102389     -56363539      -56363539       1008.9355     -56362530      -2250.1383     -999.07803     -1644.9247      6.8084056      2.6920659     -674.52259      16597.081    
     18000   342.05973      0.009          0.2351569      0.11051278     0.17515322    -1713.3741      758.21056      758.21056      758.21056      4.3588255e+08  1.6078462     -56347881      -56347881       1018.5955     -56346863      -2320.8182     -1090.6763     -1728.6278      6.7810393      3.4140957     -660.31425      16651.314    
     19000   345.56374      0.0095         0.24291584     0.11955895     0.18374424    -1796.9209      758.58628      758.58628      758.58628      4.3653086e+08  1.6054583     -56331444      -56331444       1029.0298     -56330415      -2397.393      -1179.9551     -1813.4147      6.8300659      4.1419382     -647.24012      16616.511    
     20000   349.2191       0.01           0.25078998     0.12843788     0.19224227    -1879.9905      758.96201      758.96201      758.96201      4.3717982e+08  1.6030752     -56314238      -56314238       1039.9149     -56313198      -2475.1046     -1267.5833     -1897.2837      6.8961571      4.2110283     -635.46762      16636.364    
     21000   352.74061      0.0105         0.25827127     0.13725743     0.20028484    -1960.0742      759.33773      759.33773      759.33773      4.3782942e+08  1.6006967     -56296272      -56296272       1050.4013     -56295222      -2548.9392     -1354.6255     -1976.6577      6.8950692      3.4295682     -624.40362      16554.868    
     22000   355.86048      0.011          0.26521544     0.1461457      0.2076234     -2036.3008      759.71345      759.71345      759.71345      4.3847966e+08  1.598323      -56277550      -56277550       1059.6917     -56276490      -2617.4729     -1442.3459     -2049.0837      6.7503284      2.2417841     -613.47935      16559.529    
     23000   358.5287       0.0115         0.27188445     0.15516019     0.21438404    -2110.1363      760.08918      760.08918      760.08918      4.3913054e+08  1.5959539     -56258077      -56258077       1067.6373     -56257010      -2683.2909     -1531.312      -2115.806       6.5712175      1.680116      -602.79867      16527.467    
     24000   360.98713      0.012          0.278564       0.16418275     0.22104014    -2183.6891      760.4649       760.4649       760.4649       4.3978207e+08  1.5935895     -56237874      -56237874       1074.958      -56236799      -2749.2129     -1620.3577     -2181.4966      6.4861531      2.1970308     -593.02583      16577.668    
     25000   363.40391      0.0125         0.28521536     0.17304796     0.22805245    -2257.8033      760.84062      760.84062      760.84062      4.4043425e+08  1.5912298     -56216970      -56216970       1082.1548     -56215888      -2814.8567     -1707.8506     -2250.7027      6.5130932      3.2674161     -584.61045      16563.253    
     26000   365.69906      0.013          0.29148096     0.18156759     0.23544495    -2330.7624      761.21635      761.21635      761.21635      4.4108706e+08  1.5888748     -56195404      -56195404       1088.9893     -56194315      -2876.6935     -1791.9328     -2323.6609      6.5920592      3.952256      -576.97314      16505.1      
     27000   367.76429      0.0135         0.29712189     0.18958594     0.24285358    -2400.0704      761.59207      761.59207      761.59207      4.4174053e+08  1.5865244     -56173201      -56173201       1095.1393     -56172106      -2932.3651     -1871.0677     -2396.7785      6.5232222      3.7876486     -569.07467      16468.313    
     28000   369.50054      0.014          0.30232816     0.19699109     0.24987958    -2464.6725      761.9678       761.9678       761.9678       4.4239463e+08  1.5841786     -56150361      -56150361       1100.3095     -56149260      -2983.7469     -1944.1509     -2466.1197      6.1545082      2.9284211     -560.15491      16486.927    
     29000   370.99303      0.0145         0.30764876     0.20380891     0.2564308     -2526.1567      762.34352      762.34352      762.34352      4.4304939e+08  1.5818375     -56126873      -56126873       1104.7539     -56125768      -3036.2572     -2011.4375     -2530.7752      5.8435082      2.2496326     -550.37169      16544.446    
     30000   372.42535      0.015          0.31343427     0.21025471     0.26273052    -2587.119       762.71924      762.71924      762.71924      4.4370478e+08  1.5795009     -56102734      -56102734       1109.0191     -56101625      -3093.3558     -2075.0526     -2592.9487      5.9343232      2.3068417     -540.60483      16560.809    
     31000   373.83812      0.0155         0.31946249     0.21665806     0.2689938     -2648.6203      763.09497      763.09497      763.09497      4.4436083e+08  1.577169      -56077964      -56077964       1113.2261     -56076851      -3152.8496     -2138.2488     -2654.7624      6.2835086      2.7714916     -531.74536      16518.123    
     32000   375.28397      0.016          0.32509485     0.22330531     0.27512681    -2709.1931      763.47069      763.47069      763.47069      4.4501752e+08  1.5748416     -56052607      -56052607       1117.5316     -56051490      -3208.4368     -2203.8521     -2715.2905      6.4213985      2.6763735     -523.80072      16534.132    
     33000   376.79094      0.0165         0.32992406     0.23035737     0.28091539    -2767.3224      763.84641      763.84641      763.84641      4.4567486e+08  1.5725188     -56026702      -56026702       1122.0191     -56025580      -3256.0973     -2273.4505     -2772.4194      6.2551012      1.8272871     -516.1374       16496.213    
     34000   378.27475      0.017          0.33412969     0.23762494     0.28627495    -2822.6979      764.22214      764.22214      764.22214      4.4633284e+08  1.5702006     -56000259      -56000259       1126.4376     -55999133      -3297.6037     -2345.1759     -2825.3141      5.9413131      0.82155817    -507.71915      16523.065    
     35000   379.68804      0.0175         0.33830194     0.24461663     0.2914351     -2876.3999      764.59786      764.59786      764.59786      4.4699147e+08  1.567887      -55973260      -55973260       1130.6462     -55972129      -3338.7806     -2414.1785     -2876.2408      5.6757304      0.61287547    -497.88127      16565.471    
     36000   381.00127      0.018          0.34284391     0.25088701     0.29681852    -2929.6799      764.97359      764.97359      764.97359      4.4765075e+08  1.5655779     -55945689      -55945689       1134.5567     -55944555      -3383.6063     -2476.0623     -2929.3711      5.4876823      1.3336927     -486.80383      16522.303    
     37000   382.10955      0.0185         0.34766106     0.25650486     0.30263297    -2983.1364      765.34931      765.34931      765.34931      4.4831068e+08  1.5632733     -55917562      -55917562       1137.857      -55916424      -3431.1479     -2531.5062     -2986.7552      5.4072163      2.2775509     -475.27625      16564.461    
     38000   382.98257      0.019          0.35233692     0.26201054     0.30860396    -3036.2741      765.72503      765.72503      765.72503      4.4897125e+08  1.5609732     -55888919      -55888919       1140.4567     -55887779      -3477.2951     -2585.843      -3045.6842      5.6036298      2.4078187     -463.99033      16491.302    
     39000   383.8059       0.0195         0.35660882     0.26792277     0.31414757    -3088.0143      766.10076      766.10076      766.10076      4.4963248e+08  1.5586777     -55859795      -55859795       1142.9084     -55858652      -3519.4554     -2644.1921     -3100.3955      5.9924249      1.5453177     -453.42313      16371.902    
     40000   384.89142      0.02           0.36058592     0.27432457     0.31887311    -3137.7041      766.47648      766.47648      766.47648      4.5029435e+08  1.5563866     -55830196      -55830196       1146.1409     -55829050      -3558.7063     -2707.373      -3147.0329      6.2034154      0.48306386    -443.77108      16441.336    
     41000   386.27892      0.0205         0.36454134     0.28081303     0.32292891    -3185.4043      766.8522       766.8522       766.8522       4.5095687e+08  1.5541001     -55800101      -55800101       1150.2727     -55798951      -3597.7433     -2771.4091     -3187.0605      5.9002786      0.12142728    -434.89395      16533.978    
     42000   387.78869      0.021          0.36856549     0.28685581     0.32682962    -3231.3543      767.22793      767.22793      767.22793      4.5162005e+08  1.551818      -55769499      -55769499       1154.7685     -55768345      -3637.4586     -2831.0467     -3225.5575      5.3187113      0.57099442    -426.5658       16555.637    
     43000   389.21566      0.0215         0.37250562     0.29233082     0.33102129    -3276.1172      767.60365      767.60365      767.60365      4.5228387e+08  1.5495404     -55738407      -55738407       1159.0178     -55737248      -3676.3446     -2885.0809     -3266.9261      4.9606046      1.1357807     -418.88615      16512.638    
     44000   390.29856      0.022          0.37616732     0.29757036     0.33549842    -3320.1286      767.97938      767.97938      767.97938      4.5294834e+08  1.5472672     -55706858      -55706858       1162.2425     -55705695      -3712.4828     -2936.7911     -3311.112       5.1172803      1.0650201     -411.5227       16505.558    
     45000   391.1775       0.0225         0.3795895      0.30292752     0.33993966    -3363.621       768.3551       768.3551       768.3551       4.5361346e+08  1.5449985     -55674872      -55674872       1164.8598     -55673707      -3746.257      -2989.6622     -3354.9436      5.5936455      0.56866518    -403.55765      16558.212    
     46000   392.12776      0.023          0.38298442     0.30835085     0.3441162     -3406.3705      768.73082      768.73082      768.73082      4.5427923e+08  1.5427342     -55642454      -55642454       1167.6895     -55641286      -3779.7623     -3043.1863     -3396.1628      5.7555589      0.14596267    -394.13242      16517.123    
     47000   393.30939      0.0235         0.38649475     0.31340422     0.34798957    -3447.2853      769.10655      769.10655      769.10655      4.5494566e+08  1.5404743     -55609600      -55609600       1171.2082     -55608428      -3814.4066     -3093.0592     -3434.39        5.2213475      0.028109093   -383.64903      16555.309    
     48000   394.59122      0.024          0.39000996     0.31772088     0.35160703    -3484.9507      769.48227      769.48227      769.48227      4.5561273e+08  1.5382189     -55576320      -55576320       1175.0253     -55575145      -3849.0991     -3135.6613     -3470.0916      4.4375063      0.18537941    -373.68641      16525.539    
     49000   395.78097      0.0245         0.39332672     0.32145294     0.35503117    -3519.404       769.85799      769.85799      769.85799      4.5628046e+08  1.5359678     -55542642      -55542642       1178.5682     -55541463      -3881.833      -3172.4938     -3503.8852      4.0353277      0.32272569    -365.37352      16488.679    
     50000   396.8838       0.025          0.39637227     0.32524421     0.35831529    -3552.6993      770.23372      770.23372      770.23372      4.5694884e+08  1.5337212     -55508597      -55508597       1181.8522     -55507415      -3911.8902     -3209.9108     -3536.297       4.3603526      0.15772863    -358.27047      16075.614    
     51000   398.01877      0.0255         0.39928893     0.32971075     0.36149726    -3587.456       770.60944      770.60944      770.60944      4.5761787e+08  1.5314789     -55474200      -55474200       1185.2319     -55473015      -3940.6753     -3253.9921     -3567.7006      5.1530332     -0.30529512    -350.84506      16506.729    
     52000   399.20012      0.026          0.40224736     0.33475527     0.36467388    -3624.2339      770.98517      770.98517      770.98517      4.5828756e+08  1.529241      -55439452      -55439452       1188.7498     -55438263      -3969.8728     -3303.7777     -3599.0513      5.7448051     -0.54366206    -342.33723      16525.879    
     53000   400.38199      0.0265         0.40521893     0.33961081     0.36793405    -3660.7082      771.36089      771.36089      771.36089      4.589579e+08   1.5270074     -55404348      -55404348       1192.2692     -55403155      -3999.1999     -3351.6981     -3631.2267      5.4938592     -0.49944168    -332.83114      15963.708    
     54000   401.56328      0.027          0.40799087     0.34362159     0.3713091     -3694.1247      771.73661      771.73661      771.73661      4.5962889e+08  1.5247782     -55368889      -55368889       1195.7869     -55367693      -4026.5568     -3391.2814     -3664.5359      4.5456099     -0.39370157    -322.93037      16480.224    
     55000   402.66429      0.0275         0.41038802     0.34682668     0.37467218    -3723.6183      772.11234      772.11234      772.11234      4.6030053e+08  1.5225533     -55333085      -55333085       1199.0655     -55331886      -4050.2149     -3422.9132     -3697.7269      3.7964401     -0.36223425    -313.07099      16504.963    
     56000   403.69747      0.028          0.41243444     0.34979556     0.37779779    -3750.3999      772.48806      772.48806      772.48806      4.6097283e+08  1.5203328     -55296949      -55296949       1202.1421     -55295746      -4070.4115     -3452.2138     -3728.5743      3.7308478     -0.48476394    -303.22949      16523.199    
     57000   404.77623      0.0285         0.41428772     0.35312439     0.38061945    -3776.7302      772.86378      772.86378      772.86378      4.6164578e+08  1.5181166     -55260497      -55260497       1205.3545     -55259292      -4088.7019     -3485.0668     -3756.4219      4.2152757     -0.66321094    -293.46709      16505.214    
     58000   405.85675      0.029          0.41603558     0.35692574     0.38322524    -3803.5581      773.23951      773.23951      773.23951      4.6231939e+08  1.5159046     -55223755      -55223755       1208.5721     -55222547      -4105.9519     -3522.5832     -3782.1391      4.6559023     -0.77678649    -284.0634       16513.063    
     59000   406.90266      0.0295         0.41763538     0.36081996     0.38571795    -3829.8323      773.61523      773.61523      773.61523      4.6299365e+08  1.513697      -55186751      -55186751       1211.6866     -55185540      -4121.7407     -3561.0161     -3806.7402      4.6030452     -0.94877362    -274.9932       16488.443    
     60000   408.04079      0.03           0.41906093     0.36427406     0.38808878    -3853.6846      773.99096      773.99096      773.99096      4.6366857e+08  1.5114937     -55149504      -55149504       1215.0758     -55148289      -4135.8098     -3595.1055     -3830.1384      4.1720113     -1.1405419     -265.89014      16508.265    
     61000   409.42579      0.0305         0.42043417     0.36712743     0.39024315    -3874.6764      774.36668      774.36668      774.36668      4.6434414e+08  1.5092946     -55112009      -55112009       1219.2001     -55110790      -4149.3626     -3623.266      -3851.4005      3.8217149     -1.3480688     -256.68745      16532.239    
     62000   410.8125       0.031          0.42193414     0.36973738     0.3921567     -3894.492       774.7424       774.7424       774.7424       4.6502037e+08  1.5070998     -55074247      -55074247       1223.3295     -55073024      -4164.1662     -3649.0242     -3870.2857      3.6742909     -1.5818176     -247.54364      16515.215    
     63000   411.99104      0.0315         0.42358157     0.37251328     0.39390208    -3914.7855      775.11813      775.11813      775.11813      4.6569726e+08  1.5049093     -55036209      -55036209       1226.839      -55034982      -4180.4251     -3676.4202     -3887.5113      3.7552426     -1.8992709     -238.33483      16530.3      
     64000   413.12245      0.032          0.42515292     0.37549743     0.39555626    -3935.2138      775.49385      775.49385      775.49385      4.663748e+08   1.5027229     -54997926      -54997926       1230.2081     -54996696      -4195.9331     -3705.8715     -3903.8367      3.7730334     -2.2717262     -228.61066      16500.332    
     65000   414.30789      0.0325         0.42629965     0.37841606     0.39707649    -3953.589       775.86958      775.86958      775.86958      4.67053e+08    1.5005409     -54959462      -54959462       1233.7381     -54958229      -4207.2504     -3734.6762     -3918.8402      3.6820505     -2.5650145     -218.17494      16526.129    
     66000   415.47167      0.033          0.42676192     0.38099074     0.3983266     -3967.6923      776.2453       776.2453       776.2453       4.6773186e+08  1.498363      -54920869      -54920869       1237.2037     -54919632      -4211.8127     -3760.0862     -3931.1779      3.5080544     -2.5964989     -207.39097      16515.363    
     67000   416.59599      0.0335         0.42661213     0.38322949     0.3992954     -3977.7515      776.62102      776.62102      776.62102      4.6841137e+08  1.4961894     -54882146      -54882146       1240.5517     -54880905      -4210.3343     -3782.181      -3940.7392      3.4007062     -2.5808128     -197.47442      16509.19     
     68000   417.86026      0.034          0.42633469     0.38539453     0.400165      -3986.822       776.99675      776.99675      776.99675      4.6909154e+08  1.4940199     -54843254      -54843254       1244.3165     -54842009      -4207.5962     -3803.5482     -3949.3215      3.3690292     -2.6988352     -189.20406      16554.063    
     69000   419.2998       0.0345         0.4265078      0.38779253     0.40113723    -3998.4787      777.37247      777.37247      777.37247      4.6977237e+08  1.4918547     -54804157      -54804157       1248.6032     -54802908      -4209.3047     -3827.2147     -3958.9167      3.4918542     -2.8403114     -182.09508      16580.396    
     70000   420.66833      0.035          0.42722413     0.39042075     0.40225454    -4013.1571      777.74819      777.74819      777.74819      4.7045386e+08  1.4896936     -54764866      -54764866       1252.6785     -54763613      -4216.3743     -3853.1532     -3969.9437      3.6431363     -2.7903091     -174.67174      16551.394    
     71000   421.87242      0.0355         0.42780626     0.39297558     0.40336618    -4027.1339      778.12392      778.12392      778.12392      4.71136e+08    1.4875367     -54725433      -54725433       1256.264      -54724177      -4222.1195     -3878.3674     -3980.9147      3.6225636     -2.7319812     -165.88424      16497.634    
     72000   423.13851      0.036          0.42735611     0.39515776     0.40426012    -4035.7726      778.49964      778.49964      778.49964      4.7181881e+08  1.485384      -54685917      -54685917       1260.0342     -54684657      -4217.6769     -3899.9039     -3989.7371      3.3119669     -3.0567489     -156.10171      16515.259    
     73000   424.49832      0.0365         0.42559882     0.39693306     0.404787      -4037.5652      778.87537      778.87537      778.87537      4.7250227e+08  1.4832354     -54646348      -54646348       1264.0835     -54645084      -4200.3338     -3917.4248     -3994.9371      2.9762339     -3.8028602     -146.64793      16540.485    
     74000   425.83913      0.037          0.42316707     0.39848945     0.4048609     -4034.9286      779.25109      779.25109      779.25109      4.731864e+08   1.481091      -54606730      -54606730       1268.0762     -54605462      -4176.3343     -3932.7851     -3995.6665      2.7978728     -4.6855584     -137.64291      16536.387    
     75000   427.19611      0.0375         0.42100266     0.40005452     0.40459019    -4032.0664      779.62681      779.62681      779.62681      4.7387118e+08  1.4789507     -54567061      -54567061       1272.1171     -54565789      -4154.9733     -3948.2312     -3992.9947      2.9021373     -5.0007864     -128.38527      16508.537    
     76000   428.52951      0.038          0.41955615     0.40165672     0.40430321    -4031.6344      780.00254      780.00254      780.00254      4.7455663e+08  1.4768145     -54527344      -54527344       1276.0877     -54526068      -4140.6972     -3964.0436     -3990.1625      3.1803243     -4.4478703     -118.72613      16511.69     
     77000   429.84524      0.0385         0.41843665     0.40311017     0.40420238    -4032.4013      780.37826      780.37826      780.37826      4.7524274e+08  1.4746824     -54487600      -54487600       1280.0057     -54486320      -4129.6487     -3978.388      -3989.1673      3.3454564     -3.6640178     -108.94466      16560.724    
     78000   431.1559       0.039          0.41678958     0.40424788     0.40414262    -4030.5291      780.75398      780.75398      780.75398      4.759295e+08   1.4725545     -54447865      -54447865       1283.9086     -54446581      -4113.3933     -3989.6164     -3988.5775      3.2002078     -3.7088978     -99.149936      16535.782    
     79000   432.30074      0.0395         0.41395039     0.40501984     0.4037084     -4022.3         781.12971      781.12971      781.12971      4.7661693e+08  1.4704306     -54408186      -54408186       1287.3178     -54406898      -4085.3727     -3997.2351     -3984.2921      2.9214985     -4.8720079     -88.931947      16325.481    
     80000   433.29004      0.04           0.40991629     0.40550503     0.40249665    -4006.6386      781.50543      781.50543      781.50543      4.7730502e+08  1.4683108     -54368609      -54368609       1290.2637     -54367319      -4045.5593     -4002.0235     -3972.3331      2.575538      -6.4381646     -77.491554      16493.919    
     81000   434.2477       0.0405         0.40531585     0.40589073     0.40063147    -3986.6372      781.88116      781.88116      781.88116      4.7799377e+08  1.4661951     -54329167      -54329167       1293.1155     -54327874      -4000.1564     -4005.8301     -3953.9252      2.2768986     -7.1961296     -64.659883      16509.99     
     82000   435.03087      0.041          0.40095063     0.40634445     0.39870446    -3967.43        782.25688      782.25688      782.25688      4.7868319e+08  1.4640834     -54289860      -54289860       1295.4476     -54288565      -3957.0751     -4010.3079     -3934.907       2.1848508     -6.6655301     -51.174996      16490.904    
     83000   435.61694      0.0415         0.39723449     0.40687625     0.39715685    -3951.8631      782.6326       782.6326       782.6326       4.7937326e+08  1.4619758     -54250668      -54250668       1297.1929     -54249371      -3920.3997     -4015.5564     -3919.6334      2.3130407     -5.5622962     -38.152964      16567.617    
     84000   436.27258      0.042          0.39389956     0.4074067      0.39585554    -3938.3561      783.00833      783.00833      783.00833      4.80064e+08    1.4598722     -54211581      -54211581       1299.1452     -54210282      -3887.4864     -4020.7915     -3906.7904      2.5121154     -5.0493015     -26.230462      16521.183    
     85000   437.09384      0.0425         0.39017971     0.40788885     0.39429651    -3922.5761      783.38405      783.38405      783.38405      4.807554e+08   1.4577727     -54172623      -54172623       1301.5908     -54171321      -3850.7744     -4025.55       -3891.404       2.5489651     -5.6558555     -15.033743      16558.417    
     86000   438.01716      0.043          0.38534947     0.40828066     0.39199285    -3900.3963      783.75977      783.75977      783.75977      4.8144747e+08  1.4556772     -54133844      -54133844       1304.3403     -54132540      -3803.1036     -4029.4168     -3868.6687      2.487501      -6.7649285     -2.9409852      16528.797    
     87000   438.92299      0.0435         0.37929241     0.40842123     0.38894848    -3870.9175      784.1355       784.1355       784.1355       4.821402e+08   1.4535857     -54095307      -54095307       1307.0377     -54094000      -3743.3251     -4030.8042     -3838.6231      2.2718515     -7.5456275      10.959768      16540.425    
     88000   439.56505      0.044          0.37264481     0.40804097     0.38553438    -3836.566       784.51122      784.51122      784.51122      4.828336e+08   1.4514982     -54057056      -54057056       1308.9497     -54055747      -3677.7183     -4027.0513     -3804.9285      1.9567334     -7.6960923      26.506695      16545.629    
     89000   439.86179      0.0445         0.36634477     0.40701217     0.38207135    -3801.0635      784.88695      784.88695      784.88695      4.8352765e+08  1.4494147     -54019105      -54019105       1309.8333     -54017795      -3615.5418     -4016.8978     -3770.7511      1.6176119     -7.4137895      42.688312      16488.723    
     90000   440.00863      0.045          0.36096429     0.4056661      0.37863162    -3767.6191      785.26267      785.26267      785.26267      4.8422238e+08  1.4473352     -53981444      -53981444       1310.2706     -53980134      -3562.4405     -4003.6132     -3736.8036      1.6202618     -6.7533731      58.430162      16537.759    
     91000   440.07946      0.0455         0.35625925     0.40454435     0.3751463     -3736.9846      785.63839      785.63839      785.63839      4.8491777e+08  1.4452597     -53944067      -53944067       1310.4815     -53942757      -3516.0054     -3992.5424     -3702.4061      1.8447994     -6.065895       72.763062      16516.025    
     92000   440.00124      0.046          0.3514469      0.40381234     0.37144471    -3706.5678      786.01412      786.01412      786.01412      4.8561382e+08  1.4431882     -53906987      -53906987       1310.2485     -53905677      -3468.5112     -3985.3179     -3665.8742      1.960448      -6.0113245      85.880009      16492.822    
     93000   439.76944      0.0465         0.34591        0.4029759      0.36730999    -3671.999       786.38984      786.38984      786.38984      4.8631054e+08  1.4411205     -53870240      -53870240       1309.5583     -53868931      -3413.8662     -3977.0629     -3625.0678      1.5690856     -7.0105274      99.12423       16519.736    
     94000   439.48309      0.047          0.33982614     0.40132021     0.36261949    -3631.1073      786.76556      786.76556      786.76556      4.8700793e+08  1.4390569     -53833862      -53833862       1308.7056     -53832553      -3353.8233     -3960.7225     -3578.7762      0.82278689    -8.3872191      114.087        16550.043    
     95000   439.17401      0.0475         0.33403095     0.39860496     0.35755296    -3586.4425      787.14129      787.14129      787.14129      4.8770598e+08  1.4369972     -53797869      -53797869       1307.7852     -53796561      -3296.6291     -3933.9251     -3528.7734      0.2277421     -8.7567196      131.06687      16550.429    
     96000   438.69239      0.048          0.32923565     0.39528727     0.35261048    -3543.4934      787.51701      787.51701      787.51701      4.884047e+08   1.4349414     -53762262      -53762262       1306.351      -53760956      -3249.3032     -3901.182      -3479.9949      0.32835769    -7.3850803      148.5248       16496.649    
     97000   437.95078      0.0485         0.32536332     0.39210317     0.34814214    -3505.5798      787.89274      787.89274      787.89274      4.8910408e+08  1.4328895     -53727030      -53727030       1304.1426     -53725726      -3211.0863     -3869.7574     -3435.8958      0.85620921    -5.2998603      164.56087      16541.642    
     98000   437.16924      0.049          0.32171238     0.38948077     0.3440335     -3471.4258      788.26846      788.26846      788.26846      4.8980414e+08  1.4308416     -53692163      -53692163       1301.8154     -53690861      -3175.0544     -3843.8763     -3395.3466      1.1246913     -4.2989783      178.72614      16563.691    
     99000   436.59856      0.0495         0.31769606     0.38717908     0.33992486    -3437.1247      788.64418      788.64418      788.64418      4.9050486e+08  1.4287975     -53657642      -53657642       1300.116      -53656342      -3135.4163     -3821.1604     -3354.7976      0.63545923    -5.0473714      191.90412      16508.341    
    100000   435.98876      0.05           0.31330057     0.38455274     0.33559899    -3399.7938      789.01991      789.01991      789.01991      4.9120625e+08  1.4267573     -53623450      -53623450       1298.3001     -53622151      -3092.0363     -3795.2405     -3312.1045     -0.1060678     -6.2099546      204.88         16119.785    
    101000   434.99147      0.0505         0.30888668     0.38098141     0.33124077    -3359.187       789.39563      789.39563      789.39563      4.919083e+08   1.424721      -53589594      -53589594       1295.3303     -53588298      -3048.4745     -3759.9942     -3269.0922     -0.29805766    -6.1843129      217.61108      16552.053    
    102000   433.79127      0.051          0.30463512     0.37638094     0.32721689    -3316.8285      789.77135      789.77135      789.77135      4.9261103e+08  1.4226886     -53556112      -53556112       1291.7563     -53554820      -3006.5149     -3714.5911     -3229.3796      0.19055275    -4.7123268      229.69482      16545.56     
    103000   432.60961      0.0515         0.30039469     0.37129378     0.3237579     -3274.7639      790.14708      790.14708      790.14708      4.9331443e+08  1.4206601     -53523041      -53523041       1288.2375     -53521752      -2964.6651     -3664.3847     -3195.242       0.56543774    -3.0617145      240.89855      16596.382    
    104000   431.48844      0.052          0.29604545     0.36633172     0.32073935    -3234.2019      790.5228       790.5228       790.5228       4.9401849e+08  1.4186354     -53490377      -53490377       1284.8989     -53489092      -2921.7414     -3615.413      -3165.4513      0.36013003    -2.2962544      251.39872      16517.919    
    105000   430.44346      0.0525         0.29178777     0.36178607     0.3178575     -3195.7606      790.89853      790.89853      790.89853      4.9472322e+08  1.4166145     -53458079      -53458079       1281.7871     -53456797      -2879.7214     -3570.5509     -3137.0096     -0.10799186    -2.3325791      261.21728      16518.196    
    106000   429.27056      0.053          0.28793873     0.35752424     0.31487704    -3159.273       791.27425      791.27425      791.27425      4.9542863e+08  1.4145975     -53426105      -53426105       1278.2944     -53424827      -2841.7343     -3528.4899     -3107.5948     -0.1931015     -2.3308983      269.67937      16563.258    
    107000   427.72911      0.0535         0.28442782     0.35298535     0.31175929    -3122.5346      791.64997      791.64997      791.64997      4.961347e+08   1.4125843     -53394462      -53394462       1273.7043     -53393189      -2807.0843     -3483.6946     -3076.825      -0.021584637   -2.1001866      276.06721      16526.074    
    108000   425.93873      0.054          0.28071392     0.34753146     0.30852206    -3081.7253      792.0257       792.0257       792.0257       4.9684145e+08  1.410575      -53363201      -53363201       1268.3728     -53361933      -2770.431      -3429.8689     -3044.876      -0.045695524   -1.8811221      280.72397      16536.386    
    109000   424.29404      0.0545         0.27636692     0.34096278     0.30522451    -3034.9674      792.40142      792.40142      792.40142      4.9754886e+08  1.4085694     -53332382      -53332382       1263.4752     -53331119      -2727.5294     -3365.041      -3012.3317     -0.49480089    -1.8635095      285.26043      16517.868    
    110000   423.02021      0.055          0.27168442     0.33390401     0.30192433    -2985.4848      792.77714      792.77714      792.77714      4.9825695e+08  1.4065677     -53302021      -53302021       1259.6819     -53300762      -2681.3167     -3295.3764     -2979.7614     -0.89539729    -1.8394067      290.83033      16517.687    
    111000   421.78288      0.0555         0.26752847     0.32746211     0.29862356    -2939.762       793.15287      793.15287      793.15287      4.9896571e+08  1.4045697     -53272088      -53272088       1255.9974     -53270832      -2640.3007     -3231.7998     -2947.1854     -0.81910946    -1.6276849      296.7638       16582.915    
    112000   420.14022      0.056          0.2644759      0.3221447      0.29529302    -2901.2702      793.52859      793.52859      793.52859      4.9967514e+08  1.4025755     -53242540      -53242540       1251.1058     -53241288      -2610.1742     -3179.321      -2914.3155     -0.26906704    -1.0739606      300.89489      16514.99     
    113000   418.21676      0.0565         0.26212718     0.31740253     0.29193532    -2866.897       793.90432      793.90432      793.90432      5.0038524e+08  1.4005851     -53213361      -53213361       1245.3781     -53212115      -2586.9941     -3132.5194     -2881.1776      0.038084125   -0.1723058      301.66409      16555.773    
    114000   416.35782      0.057          0.25946127     0.3123101      0.28857128    -2830.3072      794.28004      794.28004      794.28004      5.0109601e+08  1.3985985     -53184562      -53184562       1239.8425     -53183322      -2560.6836     -3082.261      -2847.9771     -0.45952042     0.61242758     299.57299      16564.783    
    115000   414.62668      0.0575         0.25587864     0.30646752     0.28521434    -2788.2573      794.65576      794.65576      794.65576      5.0180746e+08  1.3966156     -53156153      -53156153       1234.6874     -53154919      -2525.3259     -3024.5993     -2814.8467     -1.4728994      0.65522415     296.53715      16534.481    
    116000   412.79185      0.058          0.25191829     0.30041706     0.28178961    -2744.0578      795.03149      795.03149      795.03149      5.0251958e+08  1.3946364     -53128122      -53128122       1229.2237     -53126893      -2486.2402     -2964.8859     -2781.0473     -1.9464429     -0.068788931    293.51124      16530.562    
    117000   410.57025      0.0585         0.24870752     0.29511916     0.27822941    -2704.3543      795.40721      795.40721      795.40721      5.0323237e+08  1.392661      -53100435      -53100435       1222.6081     -53099212      -2454.5524     -2912.5997     -2745.9108     -1.4553353     -0.56664324     289.83241      16517.059    
    118000   407.90762      0.059          0.2467118      0.29103109     0.27470788    -2672.7552      795.78293      795.78293      795.78293      5.0394584e+08  1.3906893     -53073063      -53073063       1214.6792     -53071848      -2434.8562     -2872.2535     -2711.156      -0.52738158     0.091705962    284.13311      16570.024    
    119000   405.10911      0.0595         0.2451891      0.28769119     0.27151436    -2646.2526      796.15866      796.15866      796.15866      5.0465998e+08  1.3887214     -53045998      -53045998       1206.3457     -53044792      -2419.8282     -2839.2913     -2679.6384     -0.15870554     1.6049301      276.03834      16551.092    
    120000   402.46698      0.06           0.24302095     0.2842545      0.26867919    -2618.4872      796.53438      796.53438      796.53438      5.053748e+08   1.3867571     -53019245      -53019245       1198.4779     -53018047      -2398.4303     -2805.3738     -2651.6575     -0.79317038     2.4261039      266.0906       16521.326    
    121000   400.05648      0.0605         0.23997617     0.28021573     0.26578462    -2585.6617      796.91011      796.91011      796.91011      5.0609029e+08  1.3847966     -52992805      -52992805       1191.2999     -52991613      -2368.3806     -2765.5142     -2623.0902     -1.8241536      1.7955538      255.04753      16568.074    
    122000   397.73361      0.061          0.23692296     0.27575131     0.26242304    -2549.8719      797.28583      797.28583      797.28583      5.0680645e+08  1.3828398     -52966656      -52966656       1184.3828     -52965472      -2338.2478     -2721.4539     -2589.9141     -2.2555949      0.52612153     243.14711      16516.839    
    123000   395.26896      0.0615         0.2348606      0.27136405     0.25868412    -2516.3542      797.66155      797.66155      797.66155      5.0752329e+08  1.3808866     -52940772      -52940772       1177.0435     -52939595      -2317.8939     -2678.1549     -2553.0137     -1.7901172      0.18424656     230.62056      16552.408    
    124000   392.65742      0.062          0.2338347      0.2673256      0.2550751     -2487.821       798.03728      798.03728      798.03728      5.0824081e+08  1.3789371     -52915142      -52915142       1169.2667     -52913973      -2307.7691     -2638.2986     -2517.3955     -1.2341848      1.1181073      218.06052      16528.059    
    125000   390.14281      0.0625         0.2329975      0.26350763     0.2520284     -2462.4838      798.413        798.413        798.413        5.08959e+08    1.3769913     -52889780      -52889780       1161.7787     -52888618      -2299.5065     -2600.6181     -2487.3269     -1.2120998      2.289964       205.87873      16559.351    
    126000   387.81784      0.063          0.23144551     0.25963828     0.24937615    -2435.9238      798.78872      798.78872      798.78872      5.0967787e+08  1.3750491     -52864714      -52864714       1154.8553     -52863559      -2284.1895     -2562.4306     -2461.1513     -1.6039006      2.4733811      193.95748      16543.53     
    127000   385.63029      0.0635         0.22899739     0.25565517     0.24656519    -2405.5193      799.16445      799.16445      799.16445      5.1039742e+08  1.3731106     -52839955      -52839955       1148.3411     -52838807      -2260.0285     -2523.1203     -2433.4092     -1.8953921      1.4419893      181.96543      16540.274    
    128000   383.47525      0.064          0.22614375     0.2517879      0.24331726    -2372.7244      799.54017      799.54017      799.54017      5.1111764e+08  1.3711758     -52815493      -52815493       1141.9238     -52814351      -2231.8653     -2484.9533     -2401.3547     -1.9766501      0.23550981     169.95072      16528.459    
    129000   381.07507      0.0645         0.22362025     0.24830797     0.23997206    -2341.9698      799.9159       799.9159       799.9159       5.1183854e+08  1.3692445     -52791295      -52791295       1134.7765     -52790160      -2206.9603     -2450.6092     -2368.3401     -1.9192196     -0.001852109    158.2294       16532.406    
    130000   378.39267      0.065          0.22192419     0.24508867     0.23710922    -2316.3815      800.29162      800.29162      800.29162      5.1256011e+08  1.3673169     -52767329      -52767329       1126.7888     -52766202      -2190.2214     -2418.8371     -2340.086      -1.7598856      1.0241934      147.01343      16525.431    
    131000   375.86029      0.0655         0.22109539     0.24186553     0.23498711    -2296.0705      800.66734      800.66734      800.66734      5.1328237e+08  1.3653929     -52743569      -52743569       1119.2478     -52742450      -2182.0419     -2387.0272     -2319.1424     -1.6456643      2.2358081      136.6988       16549.937    
    132000   373.74058      0.066          0.2206575      0.23869199     0.23336879    -2278.866       801.04307      801.04307      801.04307      5.140053e+08   1.3634725     -52719999      -52719999       1112.9356     -52718886      -2177.7202     -2355.7068     -2303.1709     -1.6560057      2.5822465      127.84772      16432.421    
    133000   371.7564       0.0665         0.21995315     0.23594314     0.2318169     -2262.4005      801.41879      801.41879      801.41879      5.1472891e+08  1.3615558     -52696599      -52696599       1107.0271     -52695492      -2170.7688     -2328.5777     -2287.855      -1.5578429      2.0333231      120.51339      16597.336    
    134000   369.5457       0.067          0.21861653     0.23391009     0.22994186    -2245.1467      801.79451      801.79451      801.79451      5.154532e+08   1.3596426     -52673355      -52673355       1100.444      -52672254      -2157.5774     -2308.5131     -2269.3497     -1.1723428      1.2820067      113.43847      16507.242    
    135000   367.07787      0.0675         0.21685464     0.23239859     0.2276181     -2226.7335      802.17024      802.17024      802.17024      5.1617817e+08  1.3577329     -52650258      -52650258       1093.0952     -52649165      -2140.1889     -2293.5958     -2246.4159     -0.93900256     0.66170612     105.30071      16474.418    
    136000   364.59485      0.068          0.21514787     0.23075104     0.22507066    -2207.3183      802.54596      802.54596      802.54596      5.1690382e+08  1.3558269     -52627313      -52627313       1085.7012     -52626228      -2123.3444     -2277.3357     -2221.2747     -1.3634146      0.27264277     96.726142      16477.535    
    137000   362.24715      0.0685         0.21379186     0.2285014      0.22276178    -2187.861       802.92169      802.92169      802.92169      5.1763015e+08  1.3539244     -52604521      -52604521       1078.7102     -52603443      -2109.9616     -2255.1335     -2198.4878     -2.1688174      0.43752166     89.790634      16556.726    
    138000   359.99468      0.069          0.21268295     0.22587976     0.22104506    -2169.9409      803.29741      803.29741      803.29741      5.1835716e+08  1.3520255     -52581876      -52581876       1072.0027     -52580804      -2099.0175     -2229.2599     -2181.5451     -2.4175359      1.2768041      85.116007      16509.032    
    139000   357.79817      0.0695         0.21157916     0.22360003     0.21987103    -2154.9477      803.67313      803.67313      803.67313      5.1908485e+08  1.3501302     -52559363      -52559363       1065.4619     -52558298      -2088.1239     -2206.7607     -2169.9583     -1.6742821      2.1918376      80.746821      16532.437    
    140000   355.75832      0.07           0.21044852     0.22209785     0.21882496    -2142.8451      804.04886      804.04886      804.04886      5.1981322e+08  1.3482383     -52536972      -52536972       1059.3875     -52535912      -2076.9654     -2191.9353     -2159.6345     -0.54580029     2.2255359      74.670547      16535.753    
    141000   353.99396      0.0705         0.20950257     0.22101747     0.21747142    -2131.7262      804.42458      804.42458      804.42458      5.2054227e+08  1.3463501     -52514700      -52514700       1054.1336     -52513646      -2067.6296     -2181.2728     -2146.2761     -0.13971604     1.1742893      67.305864      16535.465    
    142000   352.47541      0.071          0.20890956     0.2196086      0.21566461    -2119.1965      804.8003       804.8003       804.8003       5.21272e+08    1.3444653     -52492555      -52492555       1049.6116     -52491505      -2061.777      -2167.3684     -2128.4442     -0.70532493    -0.033167154    61.062115      16548.586    
    143000   351.07963      0.0715         0.20849826     0.21747213     0.2137005     -2104.3536      805.17603      805.17603      805.17603      5.2200241e+08  1.342584      -52470546      -52470546       1045.4552     -52469500      -2057.7179     -2146.283      -2109.06       -1.5165177     -0.32377241     57.550791      16517.529    
    144000   349.51423      0.072          0.20786067     0.21503642     0.21206116    -2088.8502      805.55175      805.55175      805.55175      5.2273351e+08  1.3407063     -52448670      -52448670       1040.7937     -52447629      -2051.4253     -2122.2444     -2092.8809     -1.477748       0.52647974     55.523024      16547.054    
    145000   347.66042      0.0725         0.20668727     0.21313798     0.21084542    -2074.7452      805.92748      805.92748      805.92748      5.2346529e+08  1.3388321     -52426912      -52426912       1035.2734     -52425877      -2039.8447     -2103.5083     -2080.8825     -0.71135286     1.4103484      52.433894      16501.372    
    146000   345.8699       0.073          0.20509205     0.21222794     0.2097642     -2062.9466      806.3032       806.3032       806.3032       5.2419775e+08  1.3369613     -52405257      -52405257       1029.9415     -52404227      -2024.1012     -2094.5269     -2070.2117      0.031801425    1.3177217      47.010322      16556.263    
    147000   344.59836      0.0735         0.2035055      0.21194393     0.20852301    -2052.7097      806.67892      806.67892      806.67892      5.2493089e+08  1.3350941     -52383697      -52383697       1026.1551     -52382671      -2008.4431     -2091.724      -2057.9621      0.075406512    0.34908196     40.935697      16542.589    
    148000   343.83748      0.074          0.20233572     0.21154443     0.20720589    -2043.2142      807.05465      807.05465      807.05465      5.2566472e+08  1.3332303     -52362232      -52362232       1023.8893     -52361208      -1996.8983     -2087.7812     -2044.9631     -0.36233521    -0.23774817     36.841158      16539.67     
    149000   343.04252      0.0745         0.20162391     0.21045984     0.20615745    -2033.8554      807.43037      807.43037      807.43037      5.2639923e+08  1.3313699     -52340852      -52340852       1021.5221     -52339831      -1989.8733     -2077.0771     -2034.6158     -0.70811367     0.32092971     35.46635       16530.601    
    150000   341.88308      0.075          0.20108181     0.2086201      0.20548541    -2023.8089      807.8061       807.8061       807.8061       5.2713442e+08  1.3295131     -52319546      -52319546       1018.0694     -52318528      -1984.5232     -2058.9203     -2027.9833     -0.67983035     1.2986957      35.16589       16117.603    
    151000   340.60833      0.0755         0.20039029     0.20647213     0.20489929    -2012.5396      808.18182      808.18182      808.18182      5.278703e+08   1.3276597     -52298300      -52298300       1014.2734     -52297286      -1977.6984     -2037.7215     -2022.1988     -0.38065196     1.4291217      33.875321      16532.462    
    152000   339.55254      0.076          0.1994908      0.20474598     0.2039926     -2000.9191      808.55754      808.55754      808.55754      5.2860686e+08  1.3258097     -52277112      -52277112       1011.1295     -52276101      -1968.8212     -2020.6857     -2013.2505     -0.11418374     0.37914072     31.145684      16511.023    
    153000   338.73067      0.0765         0.19858407     0.20392282     0.20264851    -1990.8065      808.93327      808.93327      808.93327      5.2934411e+08  1.3239632     -52255984      -52255984       1008.6821     -52254975      -1959.8724     -2012.5617     -1999.9853      0.21093018    -0.6782092      28.388784      16524.307    
    154000   337.93481      0.077          0.19784537     0.20384975     0.2011486     -1983.2016      809.30899      809.30899      809.30899      5.3008205e+08  1.3221201     -52234926      -52234926       1006.3122     -52233920      -1952.5819     -2011.8406     -1985.1823      0.67954871    -0.69077512     26.868976      16514.255    
    155000   337.04682      0.0775         0.19721017     0.20381908     0.19983593    -1976.6927      809.68471      809.68471      809.68471      5.3082066e+08  1.3202804     -52213954      -52213954       1003.6679     -52212950      -1946.313      -2011.5379     -1972.2273      0.88589526    -0.018071658    26.196662      16525.759    
    156000   336.10144      0.078          0.1964873      0.20313915     0.1988161     -1968.7229      810.06044      810.06044      810.06044      5.3155997e+08  1.3184441     -52193073      -52193073       1000.8527     -52192072      -1939.1789     -2004.8276     -1962.1623      0.41315449     0.20057129     25.085349      16506.478    
    157000   335.20424      0.0785         0.19566093     0.20166294     0.19795208    -1958.3056      810.43616      810.43616      810.43616      5.3229996e+08  1.3166112     -52172276      -52172276       998.18099     -52171278      -1931.0232     -1990.2585     -1953.6352     -0.46133061    -0.2515642      23.163689      16518.006    
    158000   334.43711      0.079          0.19495263     0.19990875     0.19712548    -1947.4854      810.81189      810.81189      810.81189      5.3304064e+08  1.3147818     -52151546      -52151546       995.8966      -52150550      -1924.0329     -1972.946      -1945.4772     -0.66854019    -0.52756614     21.434512      16482.647    
    159000   333.78464      0.0795         0.19450137     0.198643       0.19630459    -1939.1363      811.18761      811.18761      811.18761      5.33782e+08    1.3129557     -52130877      -52130877       993.95367     -52129883      -1919.5793     -1960.454      -1937.3757      0.12818353    -0.043533535    20.859502      16538.746    
    160000   333.1225       0.08           0.19406677     0.19812242     0.19555572    -1933.5304      811.56333      811.56333      811.56333      5.3452405e+08  1.311133      -52110276      -52110276       991.98193     -52109284      -1915.2901     -1955.3162     -1929.9849      1.1537008      0.63041122     21.112197      16483.584    
    161000   332.4822       0.0805         0.19322097     0.19782655     0.19490821    -1927.6445      811.93906      811.93906      811.93906      5.3526679e+08  1.3093136     -52089760      -52089760       990.0752      -52088769      -1906.9427     -1952.3962     -1923.5945      1.2648507      0.60519324     21.330126      16531.405    
    162000   331.95664      0.081          0.19189582     0.19711319     0.19424598    -1918.7597      812.31478      812.31478      812.31478      5.3601021e+08  1.3074977     -52069337      -52069337       988.5102      -52068348      -1893.8645     -1945.3559     -1917.0588      0.37409289    -0.18561085     21.003743      16484.407    
    163000   331.44939      0.0815         0.19060236     0.19590725     0.19345781    -1907.9445      812.6905       812.6905       812.6905       5.3675433e+08  1.3056851     -52048994      -52048994       986.99969     -52048007      -1881.099      -1933.4542     -1909.2802     -0.41656831    -0.84870252     20.038815      16516.884    
    164000   330.8735       0.082          0.18996052     0.19474031     0.19256733    -1899.0646      813.06623      813.06623      813.06623      5.3749913e+08  1.3038758     -52028702      -52028702       985.28477     -52027717      -1874.7645     -1921.9374     -1900.4918     -0.12833737    -0.60687108     18.219039      16513.462    
    165000   330.35029      0.0825         0.19000259     0.19413503     0.19176267    -1894.5647      813.44195      813.44195      813.44195      5.3824462e+08  1.3020699     -52008432      -52008432       983.72676     -52007448      -1875.1798     -1915.9638     -1892.5504      1.0440456      0.30648012     15.468467      16518.434    
    166000   329.90379      0.083          0.19007721     0.19408903     0.19122829    -1892.9008      813.81768      813.81768      813.81768      5.389908e+08   1.3002673     -51988174      -51988174       982.39715     -51987192      -1875.9162     -1915.5098     -1887.2765      1.8322029      0.90522324     12.666558      16513.417    
    167000   329.36144      0.0835         0.1894463      0.19398337     0.19087406    -1889.3124      814.1934       814.1934       814.1934       5.3973767e+08  1.298468      -51967941      -51967941       980.78212     -51966961      -1869.6896     -1914.467      -1883.7805      1.3426169      0.44906426     11.636492      16538.546    
    168000   328.77695      0.084          0.18801213     0.19316874     0.19036452    -1880.2382      814.56912      814.56912      814.56912      5.4048523e+08  1.2966721     -51947758      -51947758       979.04162     -51946779      -1855.5355     -1906.4273     -1878.7518     -0.081574029   -0.7924843      13.470578      16497.44     
    169000   328.34476      0.0845         0.18637214     0.19160902     0.18945456    -1866.7184      814.94485      814.94485      814.94485      5.4123348e+08  1.2948795     -51927650      -51927650       977.75464     -51926672      -1839.35       -1891.034      -1869.7711     -0.99304139    -1.614441       16.805437      16524.916    
    170000   328.12409      0.085          0.18518729     0.18988666     0.18829364    -1853.3353      815.32057      815.32057      815.32057      5.4198242e+08  1.2930901     -51907629      -51907629       977.09752     -51906652      -1827.6565     -1874.0356     -1858.3138     -0.46821642    -1.1353451      18.857426      16542.197    
    171000   327.91976      0.0855         0.18457812     0.18866345     0.18728034    -1843.9737      815.69629      815.69629      815.69629      5.4273205e+08  1.2913041     -51887699      -51887699       976.48905     -51886722      -1821.6444     -1861.9635     -1848.3133      0.96899532     0.17297605     17.955838      16465.708    
    172000   327.46486      0.086          0.18413424     0.188104       0.18666704    -1838.6554      816.07202      816.07202      816.07202      5.4348237e+08  1.2895213     -51867854      -51867854       975.13443     -51866879      -1817.2637     -1856.4421     -1842.2604      1.8980695      0.92116723     15.161846      16533.489    
    173000   326.86605      0.0865         0.18351551     0.18782405     0.18625674    -1834.3492      816.44774      816.44774      816.44774      5.4423338e+08  1.2877419     -51848084      -51848084       973.35128     -51847111      -1811.1573     -1853.6792     -1838.2111      1.6048867      0.34239972     13.122426      16544.119    
    174000   326.47456      0.087          0.18282539     0.18736896     0.18568749    -1828.7091      816.82347      816.82347      816.82347      5.4498508e+08  1.2859657     -51828369      -51828369       972.18548     -51827397      -1804.3463     -1849.1878     -1832.593       0.68281476    -0.87413437     13.253323      16545.85     
    175000   326.39273      0.0875         0.18241692     0.18668337     0.18479593    -1822.1769      817.19919      817.19919      817.19919      5.4573748e+08  1.2841927     -51808686      -51808686       971.9418      -51807714      -1800.315      -1842.4216     -1823.7941      0.24328644    -1.3519955      14.578018      16529.482    
    176000   326.37021      0.088          0.18231986     0.18595803     0.18378999    -1816.1621      817.57491      817.57491      817.57491      5.4649057e+08  1.2824231     -51789022      -51789022       971.87475     -51788050      -1799.3571     -1835.2631     -1813.8662      0.67124489    -0.68356156     15.261802      16513.825    
    177000   326.18848      0.0885         0.18213335     0.18532064     0.1829622     -1810.7285      817.95064      817.95064      817.95064      5.4724435e+08  1.2806566     -51769386      -51769386       971.33359     -51768415      -1797.5164     -1828.9725     -1805.6965      1.1668455      0.2133573      14.662252      16535.634    
    178000   325.87947      0.089          0.18139322     0.1847074      0.1823795     -1804.3593      818.32636      818.32636      818.32636      5.4799882e+08  1.2788935     -51749808      -51749808       970.41341     -51748838      -1790.2119     -1822.9203     -1799.9457      0.91202133     0.20561735     13.906071      16537.446    
    179000   325.57243      0.0895         0.18011262     0.18406471     0.18184487    -1796.2734      818.70208      818.70208      818.70208      5.4875399e+08  1.2771335     -51730313      -51730313       969.49909     -51729343      -1777.5733     -1816.5775     -1794.6694      0.086601836   -0.50783181     14.379109      16558.482    
    180000   325.35643      0.09           0.17878196     0.18348033     0.18115619    -1787.7078      819.07781      819.07781      819.07781      5.4950985e+08  1.2753768     -51710894      -51710894       968.8559      -51709925      -1764.4408     -1810.8101     -1787.8726     -0.26952204    -0.94108824     15.782824      16509.011    
    181000   325.20711      0.0905         0.17793478     0.18306489     0.18038003    -1781.0007      819.45353      819.45353      819.45353      5.502664e+08   1.2736233     -51691526      -51691526       968.41123     -51690557      -1756.0797     -1806.71       -1780.2125      0.33583559    -0.45887179     16.304232      16515.705    
    182000   325.07078      0.091          0.17765987     0.18275076     0.17972297    -1776.9014      819.82926      819.82926      819.82926      5.5102365e+08  1.271873      -51672187      -51672187       968.00528     -51671219      -1753.3666     -1803.6098     -1773.7278      1.3188448      0.37823457     14.583912      16497.544    
    183000   324.88953      0.0915         0.17759423     0.18225427     0.17928814    -1773.6216      820.20498      820.20498      820.20498      5.5178159e+08  1.2701259     -51652875      -51652875       967.46555     -51651908      -1752.7188     -1798.7098     -1769.4363      1.544586       0.64463416     11.3494        16497.49     
    184000   324.63716      0.092          0.17726032     0.18129842     0.17893065    -1768.2026      820.5807       820.5807       820.5807       5.5254022e+08  1.2683821     -51633608      -51633608       966.71403     -51632642      -1749.4234     -1789.2763     -1765.9082      0.73903615     0.10666492     9.0371604      16522.358    
    185000   324.35479      0.0925         0.1764798      0.17997836     0.17839953    -1759.545       820.95643      820.95643      820.95643      5.5329956e+08  1.2666414     -51614404      -51614404       965.87317     -51613438      -1741.7202     -1776.2483     -1760.6665     -0.16162855    -0.66402302     9.1774353      16509.245    
    186000   324.08311      0.093          0.17548337     0.17879417     0.17760149    -1749.746       821.33215      821.33215      821.33215      5.5405958e+08  1.2649039     -51595270      -51595270       965.06415     -51594305      -1731.8863     -1764.5612     -1752.7905     -0.010796048   -0.85207225     10.986276      16540.14     
    187000   323.81359      0.0935         0.17467126     0.17816003     0.17669067    -1741.9918      821.70787      821.70787      821.70787      5.548203e+08   1.2631695     -51576204      -51576204       964.26159     -51575240      -1723.8713     -1758.3028     -1743.8013      0.99712213    -0.58383215     12.314649      16505.045    
    188000   323.52927      0.094          0.17421388     0.17800251     0.17586374    -1737.2485      822.0836       822.0836       822.0836       5.5558172e+08  1.2614384     -51557197      -51557197       963.41491     -51556233      -1719.3573     -1756.7482     -1735.6401      1.6209135     -0.38248372     12.029627      16480.995    
    189000   323.31501      0.0945         0.17389621     0.17779603     0.17520953    -1733.372       822.45932      822.45932      822.45932      5.5634384e+08  1.2597104     -51538240      -51538240       962.77688     -51537278      -1716.2221     -1754.7104     -1729.1836      1.0857109     -0.51780478     10.984319      16519.143    
    190000   323.2842       0.095          0.17338015     0.17708176     0.17468149    -1727.5875      822.83505      822.83505      822.83505      5.5710665e+08  1.2579855     -51519329      -51519329       962.68514     -51518366      -1711.1291     -1747.6611     -1723.9723     -0.020341488   -0.54239537     10.631947      16507.564    
    191000   323.41525      0.0955         0.17261261     0.17590601     0.1741993     -1719.6082      823.21077      823.21077      823.21077      5.5787016e+08  1.2562639     -51500456      -51500456       963.0754      -51499492      -1703.554      -1736.0573     -1719.2134     -0.4433748     -0.28063816     11.286074      16490.03     
    192000   323.5149       0.096          0.17188226     0.17477121     0.17369785    -1711.8227      823.58649      823.58649      823.58649      5.5863436e+08  1.2545453     -51481616      -51481616       963.37213     -51480652      -1696.346      -1724.8577     -1714.2645      0.19192071    -0.016517583    11.952376      16483.125    
    193000   323.33444      0.0965         0.17149641     0.17408984     0.173152      -1706.5162      823.96222      823.96222      823.96222      5.5939927e+08  1.2528299     -51462808      -51462808       962.83476     -51461845      -1692.538      -1718.1331     -1708.8774      1.1866316     -0.025530076    11.659132      16496.039    
    194000   322.93118      0.097          0.17139416     0.17374415     0.17256745    -1703.1195      824.33794      824.33794      824.33794      5.6016487e+08  1.2511176     -51444036      -51444036       961.63392     -51443075      -1691.5288     -1714.7215     -1703.1083      1.4255372     -0.1940881      10.738421      16519.836    
    195000   322.68066      0.0975         0.17120312     0.17332497     0.17199606    -1699.2324      824.71366      824.71366      824.71366      5.6093117e+08  1.2494084     -51425312      -51425312       960.88789     -51424351      -1689.6435     -1710.5844     -1697.4692      0.78430777    -0.26175937     10.435799      16535.473    
    196000   322.6767       0.098          0.17058569     0.17265064     0.17150579    -1693.3699      825.08939      825.08939      825.08939      5.6169816e+08  1.2477023     -51406645      -51406645       960.87612     -51405684      -1683.5498     -1703.9293     -1692.6306      0.15749426    -0.14132956     11.25895       16470.309    
    197000   322.68178      0.0985         0.16957291     0.1719551      0.17108277    -1686.3583      825.46511      825.46511      825.46511      5.6246586e+08  1.2459994     -51388030      -51388030       960.89125     -51387069      -1673.5545     -1697.0649     -1688.4556      0.35583172    -0.07119427     12.386674      16537.906    
    198000   322.56744      0.099          0.16849726     0.1715464      0.17060893    -1679.9164      825.84084      825.84084      825.84084      5.6323426e+08  1.2442995     -51369459      -51369459       960.55076     -51368499      -1662.9386     -1693.0313     -1683.7793      1.0704291     -0.26541793     12.272811      16480.779    
    199000   322.36907      0.0995         0.16771324     0.17141969     0.17001464    -1674.9653      826.21656      826.21656      826.21656      5.6400335e+08  1.2426027     -51350927      -51350927       959.96005     -51349967      -1655.201      -1691.7808     -1677.914       1.2677529     -0.53866165     10.416023      16476.735    
    200000   322.24061      0.1            0.16732048     0.17121041     0.16938628    -1670.9176      826.59228      826.59228      826.59228      5.6477315e+08  1.2409091     -51332436      -51332436       959.57752     -51331476      -1651.3248     -1689.7154     -1671.7126      0.59981687    -0.48890544     7.9400646      16095.282    
    201000   322.22285      0.1005         0.16718807     0.17060429     0.16891304    -1666.9311      826.96801      826.96801      826.96801      5.6554364e+08  1.2392184     -51313990      -51313990       959.52461     -51313030      -1650.0179     -1683.7334     -1667.0421     -0.31856008    -0.03822561     6.6983131      16532.372    
    202000   322.24606      0.101          0.16708253     0.16962577     0.16863363    -1662.4457      827.34373      827.34373      827.34373      5.6631484e+08  1.2375309     -51295586      -51295586       959.59373     -51294627      -1648.9764     -1674.0762     -1664.2845     -0.46537076     0.36726624     7.3622126      16515.163    
    203000   322.24557      0.1015         0.16681918     0.16858656     0.16835463    -1657.2428      827.71945      827.71945      827.71945      5.6708674e+08  1.2358464     -51277218      -51277218       959.59229     -51276258      -1646.3773     -1663.8199     -1661.531       0.2293169      0.34508805     8.801229       16479.528    
    204000   322.13957      0.102          0.16630065     0.16776042     0.16781762    -1651.0525      828.09518      828.09518      828.09518      5.6785933e+08  1.234165      -51258883      -51258883       959.27664     -51257923      -1641.2598     -1655.6666     -1656.2311      1.0231142     -0.18409926     9.2435249      16487.523    
    205000   321.94467      0.1025         0.16550942     0.16718971     0.16696094    -1643.7538      828.4709       828.4709       828.4709       5.6863263e+08  1.2324866     -51240591      -51240591       958.69625     -51239632      -1633.451      -1650.0342     -1647.7763      1.1697112     -0.67980861     8.3185988      16464.262    
    206000   321.79204      0.103          0.16451618     0.16677811     0.16596969    -1635.8713      828.84663      828.84663      828.84663      5.6940663e+08  1.2308113     -51222359      -51222359       958.24174     -51221401      -1623.6484     -1645.9719     -1637.9935      0.81042303    -0.78446138     7.0425515      16478.046    
    207000   321.74157      0.1035         0.16350478     0.16639914     0.1651356     -1628.5534      829.22235      829.22235      829.22235      5.7018134e+08  1.229139      -51204199      -51204199       958.09146     -51203241      -1613.6667     -1642.2319     -1629.7616      0.45977758    -0.52711932     6.5829891      16503.923    
    208000   321.68491      0.104          0.1627378      0.1659433      0.16459438    -1622.7502      829.59807      829.59807      829.59807      5.7095674e+08  1.2274697     -51186106      -51186106       957.92273     -51185148      -1606.0973     -1637.733      -1624.4203      0.42948463    -0.19735982     6.7761851      16493.958    
    209000   321.58875      0.1045         0.16239182     0.16533738     0.1642744     -1618.566       829.9738       829.9738       829.9738       5.7173285e+08  1.2258035     -51168055      -51168055       957.63637     -51167098      -1602.6826     -1631.7531     -1621.2622      0.5930996      0.018874617    6.690356       16549.662    
    210000   321.47302      0.105          0.16243184     0.1646542      0.16403758    -1615.6711      830.34952      830.34952      830.34952      5.7250966e+08  1.2241402     -51150020      -51150020       957.29175     -51149062      -1603.0777     -1625.0106     -1618.925       0.6989329      0.08377879     5.6316238      16504.904    
    211000   321.3243       0.1055         0.16261063     0.16404421     0.16375173    -1613.3122      830.72524      830.72524      830.72524      5.7328717e+08  1.22248       -51131980      -51131980       956.84891     -51131024      -1604.8422     -1618.9905     -1616.104       0.67078787     0.032377398    4.2579027      16484.905    
    212000   321.16448      0.106          0.16263266     0.16361712     0.16334937    -1610.656       831.10097      831.10097      831.10097      5.7406539e+08  1.2208228     -51113944      -51113944       956.37298     -51112987      -1605.0595     -1614.7754     -1612.1329      0.6338306     -0.014596784    3.8964884      16577.214    
    213000   321.04016      0.1065         0.16228463     0.16335342     0.16280198    -1606.8428      831.47669      831.47669      831.47669      5.7484431e+08  1.2191686     -51095935      -51095935       956.00278     -51094979      -1601.6248     -1612.1729     -1606.7306      0.60684983    -0.093506713    4.9266743      16509.991    
    214000   320.99138      0.107          0.16151921     0.16306011     0.16211168    -1601.0889      831.85242      831.85242      831.85242      5.7562394e+08  1.2175173     -51077983      -51077983       955.85753     -51077027      -1594.0707     -1609.2781     -1599.9179      0.61742217    -0.18798851     6.3125501      16546.89     
    215000   321.10429      0.1075         0.1604873      0.16257557     0.16135616    -1593.6147      832.22814      832.22814      832.22814      5.7640427e+08  1.2158691     -51060101      -51060101       956.19375     -51059145      -1583.8865     -1604.4961     -1592.4615      0.68121931    -0.28026796     6.6223546      16519.111    
    216000   321.26401      0.108          0.15948514     0.1619785      0.16065921    -1586.0608      832.60386      832.60386      832.60386      5.771853e+08   1.2142238     -51042284      -51042284       956.66937     -51041328      -1573.9959     -1598.6035     -1585.5831      0.77156712    -0.28852886     5.3994603      16459.459    
    217000   321.284        0.1085         0.15878895     0.16148412     0.16015752    -1580.4938      832.97959      832.97959      832.97959      5.7796705e+08  1.2125814     -51024516      -51024516       956.7289      -51023560      -1567.1251     -1593.7244     -1580.6318      0.77958002    -0.1756225      3.4102449      16415.025    
[...]
   4310000   319.24044      2.155          0.0069898969   0.00676454     0.006805149   -67.635779      2370.817       2370.817       2370.817       1.3325824e+10  0.052592028   -9415455.2     -9415455.2      950.64351     -9414504.6     -68.984919     -66.760819     -67.161599      0.13872762    -0.10038903    -0.02795581     16139.952    
   4311000   319.2311       2.1555         0.0069859785   0.0067589246   0.0068007687  -67.590005      2371.1927      2371.1927      2371.1927      1.3332161e+10  0.052567032   -9409328.1     -9409328.1      950.6157      -9408377.5     -68.946248     -66.7054       -67.118369      0.1444905     -0.10361593    -0.02503955     16170.329    
   4312000   319.20216      2.156          0.0069817221   0.0067529117   0.0067964405  -67.541983      2371.5684      2371.5684      2371.5684      1.3338499e+10  0.052542051   -9403203.2     -9403203.2      950.52952     -9402252.7     -68.90424      -66.646056     -67.075653      0.14634176    -0.10648762    -0.019419202    16167.539    
   4313000   319.1618       2.1565         0.006977006    0.0067465105   0.0067917249  -67.489897      2371.9441      2371.9441      2371.9441      1.334484e+10   0.052517087   -9397080.9     -9397080.9      950.40934     -9396130.4     -68.857696     -66.582882     -67.029114      0.14143056    -0.10674821    -0.012715808    16166.898    
   4314000   319.12292      2.157          0.0069727727   0.0067396779   0.0067867116  -67.437         2372.3199      2372.3199      2372.3199      1.3351182e+10  0.052492138   -9390961.5     -9390961.5      950.29357     -9390011.2     -68.815916     -66.515449     -66.979636      0.13292421    -0.10268446    -0.0083710258   16179.006    
   4315000   319.10051      2.1575         0.0069701593   0.0067327483   0.0067822133  -67.390808      2372.6956      2372.6956      2372.6956      1.3357527e+10  0.052467205   -9384844.9     -9384844.9      950.22683     -9383894.7     -68.790124     -66.44706      -66.935241      0.12479684    -0.09655512    -0.0087911674   16175.635    
   4316000   319.09564      2.158          0.006968806    0.0067261247   0.0067788322  -67.353443      2373.0713      2373.0713      2373.0713      1.3363874e+10  0.052442288   -9378730.1     -9378730.1      950.21232     -9377779.9     -68.776768     -66.38169      -66.901873      0.11775735    -0.094347423   -0.013561586    16200.301    
   4317000   319.09916      2.1585         0.0069666762   0.0067197601   0.0067755389  -67.314665      2373.447       2373.447       2373.447       1.3370222e+10  0.052417387   -9372616.5     -9372616.5      950.22281     -9371666.3     -68.755748     -66.318876     -66.86937       0.1149319     -0.097679394   -0.018510163    16167.231    
   4318000   319.11277      2.159          0.006962433    0.0067137197   0.0067715233  -67.267624      2373.8227      2373.8227      2373.8227      1.3376573e+10  0.052392501   -9366505       -9366505        950.26333     -9365554.7     -68.713871     -66.259262     -66.829739      0.11871024    -0.1023495     -0.020074584    16153.378    
   4319000   319.13733      2.1595         0.0069566814   0.0067083231   0.0067673294  -67.217152      2374.1985      2374.1985      2374.1985      1.3382926e+10  0.052367631   -9360396.2     -9360396.2      950.33648     -9359445.8     -68.657107     -66.206001     -66.788349      0.12516238    -0.10527817    -0.019425676    16178.058    
   4320000   319.16786      2.16           0.0069501067   0.0067035925   0.0067631331  -67.166156      2374.5742      2374.5742      2374.5742      1.338928e+10   0.052342777   -9354290.1     -9354290.1      950.42738     -9353339.7     -68.59222      -66.159314     -66.746934      0.12951822    -0.10469022    -0.021430359    16159.058    
   4321000   319.1978       2.1605         0.0069427064   0.0066989006   0.0067582792  -67.110408      2374.9499      2374.9499      2374.9499      1.3395637e+10  0.052317939   -9348187       -9348187        950.51654     -9347236.5     -68.519185     -66.113008     -66.69903       0.12993503    -0.10052527    -0.025576183    16133.076    
   4322000   319.22389      2.161          0.0069347163   0.0066935409   0.0067528393  -67.048595      2375.3256      2375.3256      2375.3256      1.3401996e+10  0.052293116   -9342087.5     -9342087.5      950.59424     -9341136.9     -68.440329     -66.060113     -66.645342      0.12597077    -0.096594066   -0.02660549     16112.931    
   4323000   319.24107      2.1615         0.0069270606   0.0066877127   0.0067471382  -66.985481      2375.7014      2375.7014      2375.7014      1.3408356e+10  0.052268309   -9335992       -9335992        950.6454      -9335041.3     -68.364772     -66.002593     -66.589077      0.12017842    -0.097531149   -0.025260677    16149.995    
   4324000   319.2416       2.162          0.0069205239   0.0066823508   0.0067411418  -66.926611      2376.0771      2376.0771      2376.0771      1.3414719e+10  0.052243518   -9329900.3     -9329900.3      950.64696     -9328949.6     -68.30026      -65.949674     -66.529897      0.11609599    -0.10391561    -0.027025427    16149.711    
   4325000   319.23155      2.1625         0.0069149808   0.0066778448   0.0067353156  -66.874385      2376.4528      2376.4528      2376.4528      1.3421084e+10  0.052218742   -9323811.9     -9323811.9      950.61704     -9322861.2     -68.245554     -65.905204     -66.472397      0.11286713    -0.10974274    -0.031237701    16144.961    
   4326000   319.22197      2.163          0.0069102902   0.0066741857   0.0067298767  -66.829024      2376.8285      2376.8285      2376.8285      1.3427451e+10  0.052193982   -9317725.9     -9317725.9      950.5885      -9316775.3     -68.199262     -65.869092     -66.418719      0.10791357    -0.11080284    -0.034054558    16263.864    
   4327000   319.21218      2.1635         0.0069065007   0.0066711361   0.0067243219  -66.788251      2377.2043      2377.2043      2377.2043      1.3433819e+10  0.052169238   -9311641.9     -9311641.9      950.55936     -9310691.3     -68.161862     -65.838995     -66.363897      0.10145471    -0.11045181    -0.03323558     16226.082    
   4328000   319.19616      2.164          0.006903707    0.0066679744   0.0067187262  -66.750251      2377.58        2377.58        2377.58        1.344019e+10   0.052144509   -9305559.5     -9305559.5      950.51165     -9304609       -68.134291     -65.807791     -66.308672      0.097617595   -0.11128375    -0.031453539    16235.861    
   4329000   319.17275      2.1645         0.0069013772   0.0066639755   0.0067136805  -66.712832      2377.9557      2377.9557      2377.9557      1.3446563e+10  0.052119796   -9299478.6     -9299478.6      950.44195     -9298528.1     -68.111298     -65.768324     -66.258875      0.1003637     -0.11035748    -0.03187884     16240.41     
   4330000   319.14226      2.165          0.0068985112   0.0066595742   0.0067093361  -66.674633      2378.3314      2378.3314      2378.3314      1.3452938e+10  0.052095099   -9293399.1     -9293399.1      950.35114     -9292448.8     -68.083012     -65.724888     -66.215999      0.10793758    -0.10600958    -0.035003192    16240.793    
   4331000   319.10174      2.1655         0.0068946043   0.0066552453   0.0067053148  -66.63431       2378.7072      2378.7072      2378.7072      1.3459314e+10  0.052070417   -9287321.2     -9287321.2      950.23048     -9286371       -68.044454     -65.682164     -66.176311      0.11655189    -0.10068674    -0.039080435    16247.426    
   4332000   319.06161      2.166          0.0068901975   0.0066506136   0.0067012621  -66.591243      2379.0829      2379.0829      2379.0829      1.3465693e+10  0.052045751   -9281245.1     -9281245.1      950.11098     -9280295       -68.000962     -65.636453     -66.136315      0.12343279    -0.097404463   -0.04307932     16233.428    
   4333000   319.04101      2.1665         0.0068861336   0.0066456643   0.0066969126  -66.547284      2379.4586      2379.4586      2379.4586      1.3472074e+10  0.0520211     -9275171.2     -9275171.2      950.04964     -9274221.1     -67.960855     -65.587608     -66.093389      0.12760425    -0.095804407   -0.047174782    16221.083    
   4334000   319.04326      2.167          0.0068821615   0.006641157    0.0066924517  -66.504713      2379.8343      2379.8343      2379.8343      1.3478457e+10  0.051996465   -9269099.3     -9269099.3      950.05635     -9268149.3     -67.921653     -65.543123     -66.049363      0.12879823    -0.094463959   -0.051948773    16034.483    
   4335000   319.0587       2.1675         0.0068779134   0.0066368834   0.0066884097  -66.463382      2380.2101      2380.2101      2380.2101      1.3484842e+10  0.051971845   -9263029.4     -9263029.4      950.10233     -9262079.3     -67.879727     -65.500946     -66.009471      0.12856761    -0.093030065   -0.055845368    16233.607    
   4336000   319.0807       2.168          0.006873299    0.006632153    0.0066850558  -66.421607      2380.5858      2380.5858      2380.5858      1.3491229e+10  0.051947241   -9256961.4     -9256961.4      950.16783     -9256011.2     -67.834187     -65.454261     -65.976371      0.12659242    -0.094296217   -0.057965448    16164.624    
   4337000   319.10609      2.1685         0.0068686305   0.0066268708   0.0066819776  -66.378745      2380.9615      2380.9615      2380.9615      1.3497618e+10  0.051922653   -9250895.5     -9250895.5      950.24345     -9249945.2     -67.788112     -65.402129     -65.945992      0.11988171    -0.10093951    -0.05803503     16161.33     
   4338000   319.13172      2.169          0.0068644752   0.0066218968   0.006678821   -66.338327      2381.3372      2381.3372      2381.3372      1.3504008e+10  0.05189808    -9244831.6     -9244831.6      950.31976     -9243881.3     -67.747103     -65.353041     -65.914838      0.11269921    -0.10717652    -0.058283433    16137.918    
   4339000   319.15208      2.1695         0.0068605071   0.0066175566   0.0066747806  -66.297703      2381.7129      2381.7129      2381.7129      1.3510401e+10  0.051873523   -9238769.4     -9238769.4      950.38041     -9237819       -67.707941     -65.310206     -65.874963      0.11264378    -0.1074608     -0.060536644    16136.293    
   4340000   319.1696       2.17           0.006855671    0.0066130299   0.0066693925  -66.249176      2382.0887      2382.0887      2382.0887      1.3516796e+10  0.051848981   -9232709.3     -9232709.3      950.43258     -9231758.8     -67.660212     -65.265531     -65.821786      0.12003898    -0.10426115    -0.062001919    16158.912    
   4341000   319.18868      2.1705         0.0068497516   0.0066078671   0.0066630077  -66.191714      2382.4644      2382.4644      2382.4644      1.3523193e+10  0.051824454   -9226652.3     -9226652.3      950.48937     -9225701.8     -67.601792     -65.214578     -65.758773      0.1283936     -0.10098601    -0.062667817    16156.508    
   4342000   319.20821      2.171          0.006843505    0.0066025998   0.0066564398  -66.13223       2382.8401      2382.8401      2382.8401      1.3529592e+10  0.051799943   -9220599.1     -9220599.1      950.54754     -9219648.5     -67.540143     -65.162594     -65.693953      0.13047202    -0.099325465   -0.063632831    16160.739    
   4343000   319.21999      2.1715         0.0068372008   0.0065972647   0.0066505138  -66.074445      2383.2158      2383.2158      2383.2158      1.3535993e+10  0.051775448   -9214549.4     -9214549.4      950.58261     -9213598.8     -67.477926     -65.10994      -65.635468      0.12478383    -0.10031858    -0.063445243    16138.823    
   4344000   319.22165      2.172          0.0068304846   0.0065914928   0.0066455756  -66.017117      2383.5916      2383.5916      2383.5916      1.3542396e+10  0.051750967   -9208503.1     -9208503.1      950.58757     -9207552.5     -67.411642     -65.052976     -65.586732      0.11963603    -0.10276358    -0.061786505    16155.02     
   4345000   319.21037      2.1725         0.0068233393   0.0065855298   0.0066412945  -65.95991       2383.9673      2383.9673      2383.9673      1.3548801e+10  0.051726503   -9202460.2     -9202460.2      950.55397     -9201509.6     -67.341123     -64.994126     -65.54448       0.12056734    -0.10417566    -0.062380819    16163.735    
   4346000   319.19143      2.173          0.0068159002   0.0065787762   0.0066366628  -65.897982      2384.343       2384.343       2384.343       1.3555208e+10  0.051702053   -9196420.7     -9196420.7      950.49758     -9195470.2     -67.267705     -64.927473     -65.498769      0.12217211    -0.10592228    -0.065436537    16154.108    
   4347000   319.18407      2.1735         0.0068085943   0.0065711349   0.0066313653  -65.831383      2384.7187      2384.7187      2384.7187      1.3561618e+10  0.05167762    -9190385.5     -9190385.5      950.47566     -9189435       -67.195601     -64.85206      -65.446487      0.12140145    -0.10768832    -0.07056438     16165.825    
   4348000   319.18937      2.174          0.0068023547   0.0065639869   0.0066262755  -65.770597      2385.0945      2385.0945      2385.0945      1.3568029e+10  0.051653201   -9184354.6     -9184354.6      950.49145     -9183404.1     -67.134022     -64.781514     -65.396254      0.11472316    -0.10727013    -0.072611836    16166.212    
   4349000   319.20514      2.1745         0.006796987    0.0065577657   0.0066216511  -65.717259      2385.4702      2385.4702      2385.4702      1.3574442e+10  0.051628798   -9178327       -9178327        950.53839     -9177376.5     -67.081047     -64.720115     -65.350616      0.10329309    -0.10342897    -0.071537166    16145.361    
   4350000   319.2243       2.175          0.0067920823   0.0065523287   0.0066171963  -65.668582      2385.8459      2385.8459      2385.8459      1.3580857e+10  0.05160441    -9172302.2     -9172302.2      950.59547     -9171351.6     -67.032641     -64.666456     -65.30665       0.094728969   -0.10007793    -0.071580436    15457.231    
   4351000   319.22797      2.1755         0.0067877137   0.0065471018   0.0066125637  -65.621776      2386.2216      2386.2216      2386.2216      1.3587274e+10  0.051580038   -9166279.9     -9166279.9      950.60639     -9165329.3     -66.989526     -64.614871     -65.260929      0.096818652   -0.098530716   -0.073362036    16153.242    
   4352000   319.22062      2.176          0.0067837732   0.0065416175   0.0066077806  -65.575035      2386.5974      2386.5974      2386.5974      1.3593693e+10  0.051555681   -9160260.1     -9160260.1      950.58451     -9159309.5     -66.950636     -64.560745     -65.213725      0.10645381    -0.095781104   -0.075621615    16139.55     
   4353000   319.21959      2.1765         0.0067800439   0.0065358878   0.0066032372  -65.528971      2386.9731      2386.9731      2386.9731      1.3600114e+10  0.051531339   -9154242.7     -9154242.7      950.58142     -9153292.1     -66.913831     -64.504198     -65.168884      0.11714101    -0.093118886   -0.076939829    16160.504    
   4354000   319.23148      2.177          0.006776694    0.0065306867   0.0065990901  -65.487197      2387.3488      2387.3488      2387.3488      1.3606538e+10  0.051507013   -9148227.6     -9148227.6      950.61685     -9147277       -66.88077      -64.452866     -65.127956      0.12594238    -0.090320908   -0.078141912    16117.651    
   4355000   319.2493       2.1775         0.006774136    0.0065262781   0.0065956717  -65.453034      2387.7245      2387.7245      2387.7245      1.3612963e+10  0.051482702   -9142214.3     -9142214.3      950.6699      -9141263.6     -66.855525     -64.409357     -65.094219      0.13056971    -0.089768073   -0.08000168     16148.655    
   4356000   319.2576       2.178          0.0067723447   0.0065221135   0.0065925541  -65.423184      2388.1003      2388.1003      2388.1003      1.361939e+10   0.051458406   -9136201.9     -9136201.9      950.6946      -9135251.2     -66.837845     -64.368256     -65.063451      0.13131465    -0.092680706   -0.084215699    16121.121    
   4357000   319.24117      2.1785         0.0067704142   0.006517701    0.006588866   -65.390184      2388.476       2388.476       2388.476       1.362582e+10   0.051434126   -9130190.2     -9130190.2      950.64569     -9129239.5     -66.818793     -64.324708     -65.027052      0.13224615    -0.09513332    -0.090564268    16122.424    
   4358000   319.21408      2.179          0.0067671948   0.0065125907   0.0065839639  -65.346655      2388.8517      2388.8517      2388.8517      1.3632251e+10  0.05140986    -9124180.1     -9124180.1      950.56502     -9123229.5     -66.78702      -64.274273     -64.978671      0.13662035    -0.094383969   -0.095328237    16123.258    
   4359000   319.20392      2.1795         0.0067625076   0.0065072836   0.0065782781  -65.295071      2389.2274      2389.2274      2389.2274      1.3638684e+10  0.051385611   -9118172.7     -9118172.7      950.53478     -9117222.1     -66.740761     -64.221896     -64.922557      0.13905534    -0.094503713   -0.09736444     16125.999    
   4360000   319.21231      2.18           0.0067572267   0.0065028872   0.0065731314  -65.246304      2389.6031      2389.6031      2389.6031      1.364512e+10   0.051361376   -9112168.4     -9112168.4      950.55976     -9111217.9     -66.688643     -64.178507     -64.871763      0.13648906    -0.095883255   -0.099999167    16141.418    
   4361000   319.22298      2.1805         0.0067526945   0.0064997834   0.0065695709  -65.20947       2389.9789      2389.9789      2389.9789      1.3651557e+10  0.051337156   -9106166.3     -9106166.3      950.59151     -9105215.7     -66.643914     -64.147874     -64.836623      0.1319578     -0.096171958   -0.10272101     16147.707    
   4362000   319.224        2.181          0.00674896     0.0064967375   0.0065665785  -65.17732       2390.3546      2390.3546      2390.3546      1.3657996e+10  0.051312952   -9100165.2     -9100165.2      950.59457     -9099214.6     -66.607057     -64.117814     -64.807091      0.12892892    -0.095589564   -0.10046067     16128.043    
   4363000   319.22646      2.1815         0.0067448531   0.0064926948   0.0065621156  -65.135829      2390.7303      2390.7303      2390.7303      1.3664438e+10  0.051288763   -9094165.3     -9094165.3      950.60188     -9093214.7     -66.566525     -64.077915     -64.763045      0.13049211    -0.095973627   -0.094263818    16134.626    
   4364000   319.23165      2.182          0.0067401588   0.0064883568   0.0065559064  -65.085688      2391.106       2391.106       2391.106       1.3670881e+10  0.051264589   -9088168.1     -9088168.1      950.61734     -9087217.4     -66.520196     -64.035103     -64.701765      0.1353975     -0.097443598   -0.091441321    16137.758    
   4365000   319.22705      2.1825         0.0067356644   0.0064841686   0.006548965   -65.034289      2391.4818      2391.4818      2391.4818      1.3677327e+10  0.051240431   -9082173.8     -9082173.8      950.60365     -9081223.2     -66.475839     -63.993769     -64.63326       0.13816416    -0.09632225    -0.094200055    16115.143    
   4366000   319.20774      2.183          0.0067316108   0.0064799837   0.0065424118  -64.985628      2391.8575      2391.8575      2391.8575      1.3683774e+10  0.051216287   -9076182.3     -9076182.3      950.54615     -9075231.8     -66.435833     -63.952467     -64.568585      0.13473127    -0.090078555   -0.098716662    16114.642    
   4367000   319.18546      2.1835         0.0067274926   0.0064755853   0.0065366539  -64.938669      2392.2332      2392.2332      2392.2332      1.3690224e+10  0.051192159   -9070193.4     -9070193.4      950.47979     -9069242.9     -66.395189     -63.909058     -64.511758      0.12572072    -0.081734083   -0.10021723     16137.911    
   4368000   319.17707      2.184          0.0067230783   0.0064711189   0.006