LAMMPS (23 Jun 2022 - Update 1)
OMP_NUM_THREADS environment is not set. Defaulting to 1 thread. (src/comm.cpp:98)
  using 1 OpenMP thread(s) per MPI task
###

# Read restart info
read_restart ${read_res}
read_restart ./trial7/4060/equpmf71.res
Reading restart file ...
  restart file = 23 Jun 2022, LAMMPS = 23 Jun 2022
  restoring atom style atomic from restart
  orthogonal box = (1662.4026 1662.4026 1662.4026) to (2337.5974 2337.5974 2337.5974)
  1 by 2 by 2 MPI processor grid
  restoring pair style table from restart
  1000 atoms
  read_restart CPU = 0.022 seconds

# Settings
pair_style table/pgn spline 10941
pair_coeff 1 1 N20e.txt DE_GNP 308 72.9   # 1.35 * r
pair_coeff 2 2 N100e.txt DE_GNP 473.9 111.78
WARNING: 20 of 10941 force values in table DE_GNP are inconsistent with -dE/dr.
WARNING:  Should only be flagged at inflection points (src/pair_table_pgn.cpp:478)
pair_coeff 1 2 mixed_potentiale.txt DE_GNP 391.2 92.95
WARNING: 1564 of 10941 force values in table DE_GNP are inconsistent with -dE/dr.
WARNING:  Should only be flagged at inflection points (src/pair_table_pgn.cpp:478)

# Neighbor list
neighbor 2.0 bin
neigh_modify delay 0 every 1 check no once yes

# Temperature
variable T equal ${Temp}
variable T equal 300

# Deformation
reset_timestep 0
variable tmp equal "lx"
variable L0 equal ${tmp}
variable L0 equal 675.194866805605
variable strain equal "(lx - v_L0)/v_L0"
variable stp equal "step"
variable tmpe equal "temp"
variable p1 equal "v_strain"
variable p2 equal "-pxx*1.01325/10000"
variable p3 equal "-pyy*1.01325/10000"
variable p4 equal "-pzz*1.01325/10000"
variable p5 equal "lx"
variable p6 equal "ly"
variable p7 equal "lz"
variable p8 equal "press"
variable p9 equal "epair"
variable p10 equal "etotal"

# Thermo
thermo_style custom step temp v_p1 v_p2 v_p3 v_p4 press lx ly lz vol density epair pe ke etotal pxx pyy pzz pxy pxz pyz spcpu
thermo ${ts_save}
thermo 1000

# Dump
# dump 1 all custom 2000 ./${N20}${N100}/tensile/trajectory/trajectory_${usic}_${trial}_*.tensile.custom id type x y z ix iy iz
# dump_modify 1 sort id
dump 2 all cfg 50000 ./trial${trial}/${N20}${N100}/tensile/trajectory/dumpten.tens_${usic}_${trial}_*.cfg mass type xs ys zs fx fy fz
dump 2 all cfg 50000 ./trial7/${N20}${N100}/tensile/trajectory/dumpten.tens_${usic}_${trial}_*.cfg mass type xs ys zs fx fy fz
dump 2 all cfg 50000 ./trial7/40${N100}/tensile/trajectory/dumpten.tens_${usic}_${trial}_*.cfg mass type xs ys zs fx fy fz
dump 2 all cfg 50000 ./trial7/4060/tensile/trajectory/dumpten.tens_${usic}_${trial}_*.cfg mass type xs ys zs fx fy fz
dump 2 all cfg 50000 ./trial7/4060/tensile/trajectory/dumpten.tens_1_${trial}_*.cfg mass type xs ys zs fx fy fz
dump 2 all cfg 50000 ./trial7/4060/tensile/trajectory/dumpten.tens_1_7_*.cfg mass type xs ys zs fx fy fz
dump_modify 2 element N20 N100

fix 1 all nvt temp ${T} ${T} 100
fix 1 all nvt temp 300 ${T} 100
fix 1 all nvt temp 300 300 100
fix 2 all deform 1 x erate ${strain_rate} y erate ${strain_rate} z erate ${strain_rate} units box
fix 2 all deform 1 x erate 5e-6 y erate ${strain_rate} z erate ${strain_rate} units box
fix 2 all deform 1 x erate 5e-6 y erate 5e-6 z erate ${strain_rate} units box
fix 2 all deform 1 x erate 5e-6 y erate 5e-6 z erate 5e-6 units box
fix             def1 all print ${ts_save} "${p1} ${p2} ${p3} ${p4}" file ./tensile/${trial}/tensile${N20}${N100}_${usic}_${trial}.txt screen no
fix             def1 all print 1000 "${p1} ${p2} ${p3} ${p4}" file ./tensile/${trial}/tensile${N20}${N100}_${usic}_${trial}.txt screen no
fix             def1 all print 1000 "${p1} ${p2} ${p3} ${p4}" file ./tensile/7/tensile${N20}${N100}_${usic}_${trial}.txt screen no
fix             def1 all print 1000 "${p1} ${p2} ${p3} ${p4}" file ./tensile/7/tensile40${N100}_${usic}_${trial}.txt screen no
fix             def1 all print 1000 "${p1} ${p2} ${p3} ${p4}" file ./tensile/7/tensile4060_${usic}_${trial}.txt screen no
fix             def1 all print 1000 "${p1} ${p2} ${p3} ${p4}" file ./tensile/7/tensile4060_1_${trial}.txt screen no
fix             def1 all print 1000 "${p1} ${p2} ${p3} ${p4}" file ./tensile/7/tensile4060_1_7.txt screen no

timestep       		${ts}
timestep       		0.1
run				${steps_tensile}
run				6000000
Generated 0 of 1 mixed pair_coeff terms from geometric mixing rule
Unused restart file global fix info:
  fix style: npt, fix ID: 5
Neighbor list info ...
  update every 1 steps, delay 0 steps, check no
  max neighbors/atom: 2000, page size: 100000
  master list distance cutoff = 113.78
  ghost atom cutoff = 113.78
  binsize = 56.89, bins = 12 12 12
  1 neighbor lists, perpetual/occasional/extra = 1 0 0
  (1) pair table/pgn, perpetual
      attributes: half, newton on
      pair build: half/bin/atomonly/newton
      stencil: half/bin/3d
      bin: standard
Per MPI rank memory allocation (min/avg/max) = 3.849 | 3.851 | 3.853 Mbytes
   Step          Temp           v_p1           v_p2           v_p3           v_p4          Press            Lx             Ly             Lz           Volume        Density         E_pair         PotEng         KinEng         TotEng          Pxx            Pyy            Pzz            Pxy            Pxz            Pyz           S/CPU     
         0   305.50059      6.7350534e-16  0.013157179    0.0058351866   0.011612444   -100.68199      675.19487      675.19487      675.19487      3.0781331e+08  1.844807      -35956617      -35956617       909.72858     -35955707      -129.85126     -57.588815     -114.60591      12.274312     -8.3375754     -62.654093      0            
      1000   331.72366      0.0005         0.022515712    0.015310169    0.021008933   -193.55149      675.53246      675.53246      675.53246      3.0827526e+08  1.8420426     -35955741      -35955741       987.81642     -35954753      -222.2128      -151.09962     -207.34205      12.158506     -7.9957195     -61.569889      11762.128    
      2000   394.5112       0.001          0.030947551    0.023888033    0.029246875   -276.60978      675.87006      675.87006      675.87006      3.0873767e+08  1.8392836     -35954472      -35954472       1174.787      -35953297      -305.42858     -235.75656     -288.64421      11.58998      -8.6270721     -60.842256      12050.597    
      3000   457.40055      0.0015         0.038690049    0.031901947    0.036667309   -352.85568      676.20766      676.20766      676.20766      3.0920055e+08  1.8365302     -35952822      -35952822       1362.0607     -35951460      -381.8411      -314.84774     -361.87821      10.942435     -9.6047186     -59.853355      12115.792    
      4000   497.38971      0.002          0.046466971    0.039907505    0.044306229   -429.9061       676.54526      676.54526      676.54526      3.0966389e+08  1.8337823     -35950746      -35950746       1481.1416     -35949265      -458.59335     -393.85645     -437.26849      11.235264     -9.7183924     -58.923131      12081.666    
      5000   511.54153      0.0025         0.054448094    0.048022719    0.052434449   -509.59869      676.88285      676.88285      676.88285      3.1012769e+08  1.8310399     -35948189      -35948189       1523.2833     -35946666      -537.36091     -473.94738     -517.48778      12.318054     -9.4039462     -58.767437      12234.695    
      6000   507.70264      0.003          0.062356841    0.056298951    0.060605605   -589.72415      677.22045      677.22045      677.22045      3.1059195e+08  1.8283029     -35945110      -35945110       1511.8518     -35943599      -615.41418     -555.62745     -598.13082      12.85151      -9.5968218     -58.916041      11955.743    
      7000   494.82353      0.0035         0.070116853    0.064536095    0.068533341   -668.43092      677.55805      677.55805      677.55805      3.1105668e+08  1.8255714     -35941484      -35941484       1473.5        -35940011      -691.99954     -636.92174     -676.37148      12.299401     -9.4119918     -57.894825      12161.503    
      8000   479.07187      0.004          0.077867565    0.072494637    0.076196807   -745.32119      677.89565      677.89565      677.89565      3.1152186e+08  1.8228453     -35937309      -35937309       1426.5942     -35935882      -768.49311     -715.46644     -752.00402      12.004249     -8.7774478     -55.802571      11986.442    
      9000   463.66311      0.0045         0.085443666    0.080171417    0.08377126    -820.41728      678.23324      678.23324      678.23324      3.1198752e+08  1.8201246     -35932597      -35932597       1380.7096     -35931216      -843.26342     -791.23037     -826.75805      13.167568     -8.3255322     -54.369673      12156.607    
     10000   449.62858      0.005          0.092680714    0.087802441    0.091371999   -894.33392      678.57084      678.57084      678.57084      3.1245363e+08  1.8174093     -35927354      -35927354       1338.9171     -35926015      -914.68753     -866.54272     -901.77152      14.720545     -8.0501056     -54.288619      12005.879    
     11000   436.9851       0.0055         0.099790293    0.095318159    0.098683408   -966.50008      678.90844      678.90844      678.90844      3.1292022e+08  1.8146995     -35921581      -35921581       1301.267      -35920280      -984.85362     -940.71709     -973.92952      14.836659     -7.9427719     -54.525358      11943.325    
     12000   425.98714      0.006          0.10683734     0.10243031     0.10566199    -1036.0379      679.24604      679.24604      679.24604      3.1338726e+08  1.811995      -35915293      -35915293       1268.517      -35914025      -1054.4025     -1010.9085     -1042.8027      13.879413     -7.9336547     -53.834898      12027.756    
     13000   417.09241      0.0065         0.11367992     0.10927181     0.11242045    -1103.2887      679.58363      679.58363      679.58363      3.1385477e+08  1.8092959     -35908518      -35908518       1242.03       -35907276      -1121.9336     -1078.4289     -1109.5036      13.953338     -7.7965721     -52.388766      12005.892    
     14000   409.94157      0.007          0.12042174     0.11625528     0.11915865    -1170.6083      679.92123      679.92123      679.92123      3.1432274e+08  1.8066022     -35901267      -35901267       1220.736      -35900046      -1188.4702     -1147.3504     -1176.0044      14.153764     -8.142586      -50.334214      11857.453    
     15000   403.74735      0.0075         0.12707428     0.12333751     0.12591262    -1238.0111      680.25883      680.25883      680.25883      3.1479118e+08  1.8039138     -35893542      -35893542       1202.2907     -35892340      -1254.1257     -1217.2466     -1242.6609      13.431548     -8.9057409     -47.925192      11920.366    
     16000   398.2896       0.008          0.13353742     0.13022214     0.13251282    -1303.6348      680.59643      680.59643      680.59643      3.1526009e+08  1.8012307     -35885349      -35885349       1186.0384     -35884163      -1317.9119     -1285.1926     -1307.7998      13.423809     -8.8472533     -46.887796      11951.196    
     17000   393.78411      0.0085         0.13973211     0.13664402     0.13885493    -1366.004       680.93402      680.93402      680.93402      3.1572946e+08  1.798553      -35876698      -35876698       1172.6218     -35875525      -1379.0487     -1348.5716     -1370.3916      14.474443     -7.793018      -47.338338      11803.806    
     18000   390.45024      0.009          0.14581872     0.14274883     0.14509713    -1426.6459      681.27162      681.27162      681.27162      3.1619929e+08  1.7958805     -35867601      -35867601       1162.6941     -35866439      -1439.1189     -1408.8214     -1431.9973      15.366354     -6.8351622     -47.692172      11984.762    
     19000   388.26827      0.0095         0.15195625     0.14890147     0.15116065    -1487.0249      681.60922      681.60922      681.60922      3.1666959e+08  1.7932134     -35858079      -35858079       1156.1966     -35856923      -1499.6916     -1469.5433     -1491.8397      15.442884     -6.4394081     -46.85575       11821.289    
     20000   386.86783      0.01           0.15798913     0.15510858     0.15689892    -1546.1687      681.94682      681.94682      681.94682      3.1714036e+08  1.7905515     -35848135      -35848135       1152.0263     -35846983      -1559.2314     -1530.8026     -1548.4719      15.007322     -6.2714372     -45.478168      11894.852    
     21000   385.73192      0.0105         0.16386789     0.16107003     0.16254488    -1603.6937      682.28441      682.28441      682.28441      3.176116e+08   1.7878949     -35837775      -35837775       1148.6438     -35836626      -1617.2503     -1589.6376     -1604.1932      14.837274     -5.8692151     -44.296352      11794.183    
     22000   384.78057      0.011          0.16945856     0.16686029     0.16820299    -1659.7478      682.62201      682.62201      682.62201      3.180833e+08   1.7852436     -35827015      -35827015       1145.8108     -35825869      -1672.426      -1646.783      -1660.0345      14.274758     -5.9033932     -42.818538      11951.743    
     23000   384.19427      0.0115         0.17485954     0.17268124     0.17382028    -1715.1445      682.95961      682.95961      682.95961      3.1855546e+08  1.7825974     -35815864      -35815864       1144.0649     -35814720      -1725.7295     -1704.2313     -1715.4728      13.862093     -6.6567352     -41.179301      11770.148    
     24000   384.19711      0.012          0.1802848      0.17835753     0.17938614    -1769.9761      683.29721      683.29721      683.29721      3.190281e+08   1.7799566     -35804331      -35804331       1144.0734     -35803187      -1779.2727     -1760.2519     -1770.4036      14.373867     -6.63074       -40.164833      11882.971    
     25000   384.80583      0.0125         0.18559386     0.18379073     0.18478443    -1823.0743      683.6348       683.6348       683.6348       3.195012e+08   1.7773209     -35792414      -35792414       1145.8861     -35791268      -1831.6689     -1813.8734     -1823.6805      15.715848     -6.3127834     -40.060723      11800.034    
     26000   385.95649      0.013          0.19072257     0.18908283     0.18985759    -1874.0455      683.9724       683.9724       683.9724       3.1997477e+08  1.7746904     -35780123      -35780123       1149.3125     -35778973      -1882.2854     -1866.1025     -1873.7487      17.500034     -5.9442342     -40.082767      11989.989    
     27000   387.2775       0.0135         0.19569876     0.19422227     0.19470536    -1923.2713      684.31         684.31         684.31         3.204488e+08   1.7720651     -35767476      -35767476       1153.2463     -35766323      -1931.3966     -1916.8247     -1921.5925      18.113604     -6.824523      -39.485518      11797.13     
     28000   388.38024      0.014          0.2004248      0.19911682     0.19939561    -1970.3503      684.64759      684.64759      684.64759      3.2092331e+08  1.769445      -35754487      -35754487       1156.53       -35753331      -1978.039      -1965.1302     -1967.8817      17.566071     -8.0450941     -38.542291      11992.272    
     29000   389.50628      0.0145         0.20499137     0.20367167     0.20396983    -2015.4054      684.98519      684.98519      684.98519      3.2139828e+08  1.7668301     -35741173      -35741173       1159.8832     -35740013      -2023.1075     -2010.0831     -2013.0257      16.675663     -7.9660866     -36.980593      11812.045    
     30000   391.17057      0.015          0.20964314     0.20818193     0.2085427     -2060.5898      685.32279      685.32279      685.32279      3.2187372e+08  1.7642203     -35727543      -35727543       1164.8392     -35726378      -2069.017      -2054.5959     -2058.1565      15.021036     -6.1238058     -34.93781       11965.803    
     31000   393.22984      0.0155         0.21429395     0.21290473     0.21308361    -2106.365       685.66039      685.66039      685.66039      3.2234963e+08  1.7616156     -35713592      -35713592       1170.9713     -35712421      -2114.9168     -2101.2063     -2102.9718      14.485384     -3.7043455     -33.847043      11875.301    
     32000   395.18428      0.016          0.21871077     0.21760743     0.21755957    -2151.0906      685.99798      685.99798      685.99798      3.2282601e+08  1.7590161     -35699322      -35699322       1176.7913     -35698145      -2158.5074     -2147.6183     -2147.146       15.031548     -3.5101715     -33.759635      11897.79     
     33000   396.52919      0.0165         0.22289998     0.22207639     0.22199776    -2194.1743      686.33558      686.33558      686.33558      3.2330286e+08  1.7564217     -35684738      -35684738       1180.7962     -35683557      -2199.8518     -2191.7236     -2190.9475      15.532438     -5.3457595     -33.807178      11909.81     
     34000   397.67293      0.017          0.2269335      0.22640628     0.22614999    -2235.3475      686.67318      686.67318      686.67318      3.2378018e+08  1.7538324     -35669847      -35669847       1184.2021     -35668662      -2239.6595     -2234.4562     -2231.9269      16.680614     -6.4054367     -32.926528      11859.924    
     35000   399.52423      0.0175         0.23105541     0.23061438     0.22997245    -2275.3261      687.01078      687.01078      687.01078      3.2425796e+08  1.7512481     -35654661      -35654661       1189.7149     -35653471      -2280.3396     -2275.987      -2269.6517      18.144807     -6.2365236     -31.388284      11854.101    
     36000   401.60687      0.018          0.23517842     0.23474729     0.23369627    -2314.7363      687.34837      687.34837      687.34837      3.2473622e+08  1.748669      -35639190      -35639190       1195.9167     -35637995      -2321.0305     -2316.7756     -2306.4029      17.732938     -5.747275      -30.053438      11860.77     
     37000   403.60208      0.0185         0.23894182     0.23864566     0.23748907    -2352.419       687.68597      687.68597      687.68597      3.2521495e+08  1.7460949     -35623448      -35623448       1201.8581     -35622246      -2358.1724     -2355.2496     -2343.8349      15.83012      -5.4833493     -28.943716      11871.596    
     38000   405.83376      0.019          0.24253556     0.2422446      0.24132763    -2388.7089      688.02357      688.02357      688.02357      3.2569414e+08  1.7435258     -35607449      -35607449       1208.5036     -35606240      -2393.6399     -2390.7684     -2381.7185      14.515112     -5.0085354     -28.024919      11817.811    
     39000   408.34267      0.0195         0.24623762     0.24571576     0.24497828    -2424.3167      688.36117      688.36117      688.36117      3.2617381e+08  1.7409618     -35591193      -35591193       1215.9747     -35589977      -2430.1763     -2425.026      -2417.7476      15.224915     -3.8640496     -27.804926      11943.022    
     40000   410.70991      0.02           0.24975113     0.24935533     0.24823626    -2458.5664      688.69876      688.69876      688.69876      3.2665395e+08  1.7384029     -35574681      -35574681       1223.024      -35573458      -2464.852      -2460.9457     -2449.9014      16.640043     -3.7265642     -27.347395      11863.051    
     41000   412.65665      0.0205         0.25283456     0.25304096     0.25137286    -2491.1535      689.03636      689.03636      689.03636      3.2713456e+08  1.7358489     -35557920      -35557920       1228.821      -35556691      -2495.2831     -2497.3201     -2480.8573      17.654871     -5.1793332     -26.280844      11903.469    
     42000   414.06451      0.021          0.2559023      0.25653107     0.25464425    -2523.4892      689.37396      689.37396      689.37396      3.2761564e+08  1.7332999     -35540915      -35540915       1233.0134     -35539682      -2525.5593     -2531.7648     -2513.1434      17.407871     -5.0746883     -25.217477      11806.474    
     43000   415.17797      0.0215         0.25921767     0.25977691     0.25787965    -2555.7175      689.71156      689.71156      689.71156      3.2809719e+08  1.7307559     -35523671      -35523671       1236.3291     -35522434      -2558.2795     -2563.7987     -2545.0743      16.134066     -3.4115056     -23.302029      11957.847    
     44000   416.47949      0.022          0.26252385     0.26287317     0.26096508    -2586.9302      690.04915      690.04915      690.04915      3.2857921e+08  1.7282169     -35506201      -35506201       1240.2048     -35504960      -2590.909      -2594.3565     -2575.5251      15.505988     -3.2979593     -20.877901      11739.916    
     45000   418.15845      0.0225         0.26562448     0.26597197     0.26400202    -2617.3155      690.38675      690.38675      690.38675      3.2906171e+08  1.7256829     -35488516      -35488516       1245.2045     -35487271      -2621.5098     -2624.9393     -2605.4974      16.17977      -4.4593846     -19.980658      11857.584    
     46000   419.83478      0.023          0.26860292     0.26898881     0.26698523    -2646.8524      690.72435      690.72435      690.72435      3.2954467e+08  1.7231538     -35470614      -35470614       1250.1963     -35469363      -2650.9047     -2654.7131     -2634.9394      17.221418     -4.3418438     -20.075461      11863.143    
     47000   421.65047      0.0235         0.27138531     0.27170352     0.26975532    -2674.0493      691.06195      691.06195      691.06195      3.3002811e+08  1.7206296     -35452495      -35452495       1255.6031     -35451239      -2678.3647     -2681.5053     -2662.278       17.943479     -4.3103421     -19.443822      11872.297    
     48000   423.68267      0.024          0.27381584     0.27428328     0.27217783    -2698.5014      691.39954      691.39954      691.39954      3.3051203e+08  1.7181104     -35434180      -35434180       1261.6546     -35432918      -2702.3522     -2706.9655     -2686.1864      18.077129     -4.0646018     -18.842359      11888.193    
     49000   425.51015      0.0245         0.27607398     0.27677413     0.27449695    -2721.7536      691.73714      691.73714      691.73714      3.3099641e+08  1.7155961     -35415677      -35415677       1267.0966     -35414410      -2724.6384     -2731.5483     -2709.0743      17.345151     -3.4928338     -18.28236       11817.036    
     50000   427.17936      0.025          0.2783703      0.27921996     0.27680855    -2744.9586      692.07474      692.07474      692.07474      3.3148127e+08  1.7130867     -35396999      -35396999       1272.0672     -35395726      -2747.3012     -2755.6867     -2731.888       16.685947     -4.1589023     -17.03075       10217.761    
     51000   428.98748      0.0255         0.28083303     0.28172915     0.27905233    -2768.6965      692.41234      692.41234      692.41234      3.319666e+08   1.7105822     -35378149      -35378149       1277.4515     -35376871      -2771.6065     -2780.4505     -2754.0324      16.703812     -5.0118021     -15.421467      11510.38     
     52000   430.37654      0.026          0.28324198     0.28424438     0.28134907    -2792.4514      692.74993      692.74993      692.74993      3.324524e+08   1.7080826     -35359125      -35359125       1281.5879     -35357844      -2795.381      -2805.2739     -2776.6995      17.238983     -5.3105795     -14.084816      11686.323    
     53000   431.50438      0.0265         0.28531912     0.28647662     0.28357426    -2813.9485      693.08753      693.08753      693.08753      3.3293868e+08  1.7055878     -35339932      -35339932       1284.9464     -35338647      -2815.8808     -2827.3045     -2798.6603      17.925744     -5.1078179     -14.22048       11366.079    
     54000   432.93466      0.027          0.28736066     0.28839201     0.28570338    -2833.9701      693.42513      693.42513      693.42513      3.3342544e+08  1.7030979     -35320583      -35320583       1289.2055     -35319294      -2836.0292     -2846.2079     -2819.6731      18.791083     -4.477956      -14.397352      11804.004    
     55000   434.49113      0.0275         0.28950165     0.29037324     0.28779653    -2854.417       693.76273      693.76273      693.76273      3.3391266e+08  1.7006128     -35301076      -35301076       1293.8404     -35299782      -2857.1591     -2865.761      -2840.3309      19.546273     -4.1319637     -12.891954      11517.789    
     56000   435.60028      0.028          0.29144262     0.29254659     0.28988675    -2874.8284      694.10032      694.10032      694.10032      3.3440036e+08  1.6981326     -35281399      -35281399       1297.1432     -35280101      -2876.315      -2887.2103     -2860.9598      18.974018     -4.3436591     -10.919055      11710.498    
     57000   436.31769      0.0285         0.29308468     0.29453252     0.29174872    -2892.889       694.43792      694.43792      694.43792      3.3488854e+08  1.6956572     -35261569      -35261569       1299.2796     -35260270      -2892.5209     -2906.81       -2879.336       17.453513     -3.665349      -9.5341298      11554.459    
     58000   437.21668      0.029          0.29460077     0.2961051      0.29334293    -2908.2944      694.77552      694.77552      694.77552      3.3537719e+08  1.6931866     -35241615      -35241615       1301.9566     -35240313      -2907.4836     -2922.3301     -2895.0696      16.890613     -3.1437292     -8.6360527      11675.334    
     59000   438.07753      0.0295         0.29611423     0.29760315     0.29476891    -2922.8926      695.11312      695.11312      695.11312      3.3586631e+08  1.6907208     -35221542      -35221542       1304.5201     -35220237      -2922.4202     -2937.1148     -2909.1429      17.57889      -3.391017      -7.1771875      11548.536    
     60000   438.67059      0.03           0.29780815     0.29918147     0.296218      -2938.4246      695.45071      695.45071      695.45071      3.3635592e+08  1.6882598     -35201340      -35201340       1306.2861     -35200034      -2939.1379     -2952.6915     -2923.4443      17.636281     -3.8900299     -6.5460897      11774.217    
     61000   439.0952       0.0305         0.29947904     0.30059251     0.29784044    -2953.9008      695.78831      695.78831      695.78831      3.3684599e+08  1.6858035     -35181014      -35181014       1307.5505     -35179706      -2955.6284     -2966.6175     -2939.4566      17.199685     -4.4605633     -7.2490309      11763.165    
     62000   439.90695      0.031          0.3008007      0.30191179     0.29930465    -2967.4057      696.12591      696.12591      696.12591      3.3733654e+08  1.683352      -35160570      -35160570       1309.9678     -35159260      -2968.6721     -2979.6377     -2953.9072      17.283938     -4.5160929     -6.3478232      11775.17     
     63000   441.11738      0.0315         0.3019944      0.30335063     0.30060034    -2980.3285      696.46351      696.46351      696.46351      3.3782757e+08  1.6809053     -35140019      -35140019       1313.5722     -35138705      -2980.453      -2993.838      -2966.6947      19.079806     -3.9582952     -4.0529287      11685.485    
     64000   441.87504      0.032          0.30319985     0.30475723     0.30197286    -2993.4367      696.8011       696.8011       696.8011       3.3831908e+08  1.6784633     -35119355      -35119355       1315.8284     -35118039      -2992.3498     -3007.72       -2980.2404      20.981195     -3.4508964     -2.3126345      11777.066    
     65000   441.88712      0.0325         0.30431743     0.30594645     0.30334667    -3005.545       697.1387       697.1387       697.1387       3.3881106e+08  1.676026      -35098574      -35098574       1315.8644     -35097259      -3003.3796     -3019.4567     -2993.7989      20.435575     -2.5761763     -1.6982619      11716.494    
     66000   441.9375       0.033          0.30533917     0.30696598     0.30437549    -3015.6448      697.4763       697.4763       697.4763       3.3930352e+08  1.6735935     -35077699      -35077699       1316.0144     -35076383      -3013.4633     -3029.5186     -3003.9526      18.751859     -2.2340922     -2.2149584      11652.921    
     67000   442.62065      0.0335         0.30630922     0.30802356     0.30518403    -3024.9751      697.81389      697.81389      697.81389      3.3979645e+08  1.6711656     -35056746      -35056746       1318.0487     -35055428      -3023.037      -3039.9561     -3011.9322      17.582111     -3.58397       -3.6136046      11776.874    
     68000   443.57454      0.034          0.30719129     0.30911874     0.30608469    -3034.4427      698.15149      698.15149      698.15149      3.4028986e+08  1.6687425     -35035714      -35035714       1320.8892     -35034394      -3031.7424     -3050.7648     -3020.821       17.645736     -4.6962078     -4.1158206      11671.647    
     69000   444.29004      0.0345         0.30796683     0.31007603     0.30707272    -3043.3936      698.48909      698.48909      698.48909      3.4078375e+08  1.666324      -35014592      -35014592       1323.0199     -35013269      -3039.3963     -3060.2125     -3030.5721      18.053655     -3.9633069     -3.1526196      11808.281    
     70000   444.33346      0.035          0.30861133     0.31081764     0.30801745    -3051.0615      698.82669      698.82669      698.82669      3.4127812e+08  1.6639102     -34993391      -34993391       1323.1492     -34992068      -3045.757      -3067.5316     -3039.8958      18.685994     -2.8369668     -1.2550944      11707.114    
     71000   444.19138      0.0355         0.30904986     0.31131393     0.30871962    -3056.4468      699.16428      699.16428      699.16428      3.4177296e+08  1.6615011     -34972127      -34972127       1322.7261     -34970804      -3050.0849     -3072.4296     -3046.8258      19.629498     -2.4499264      0.45808398     11824.592    
     72000   444.19593      0.036          0.30951816     0.31177906     0.30923588    -3061.2159      699.50188      699.50188      699.50188      3.4226829e+08  1.6590966     -34950807      -34950807       1322.7396     -34949485      -3054.7067     -3077.0201     -3051.9208      19.943252     -2.3846886      0.13318115     11666.457    
     73000   444.00736      0.0365         0.31008014     0.31239705     0.30970037    -3066.6258      699.83948      699.83948      699.83948      3.4276409e+08  1.6566968     -34929426      -34929426       1322.1781     -34928103      -3060.2531     -3083.1192     -3056.505       19.090199     -2.1876232     -1.6809442      11833.137    
     74000   443.71744      0.037          0.3105325      0.31305463     0.31011611    -3071.6448      700.17708      700.17708      700.17708      3.4326037e+08  1.6543015     -34907981      -34907981       1321.3148     -34906659      -3064.7175     -3089.609      -3060.6081      17.79851      -1.9739562     -2.6213043      11773.151    
     75000   444.02966      0.0375         0.31071097     0.31343514     0.31049399    -3074.7269      700.51467      700.51467      700.51467      3.4375713e+08  1.6519109     -34886490      -34886490       1322.2445     -34885168      -3066.4789     -3093.3644     -3064.3374      16.924898     -1.9483362     -2.3003867      11801.277    
     76000   444.92095      0.038          0.3108492      0.31366926     0.31082587    -3077.0436      700.85227      700.85227      700.85227      3.4425437e+08  1.6495249     -34864971      -34864971       1324.8986     -34863646      -3067.8431     -3095.6749     -3067.6128      17.105348     -2.0709767     -1.7339234      11745.514    
     77000   445.33312      0.0385         0.31095783     0.31400715     0.31115202    -3079.5855      701.18987      701.18987      701.18987      3.4475208e+08  1.6471435     -34843427      -34843427       1326.126      -34842101      -3068.9151     -3099.0096     -3070.8317      17.467255     -2.5353251     -1.7268         11754.625    
     78000   444.75244      0.039          0.31096816     0.31432635     0.31134289    -3081.2975      701.52747      701.52747      701.52747      3.4525028e+08  1.6447667     -34821851      -34821851       1324.3968     -34820526      -3069.0171     -3102.1599     -3072.7154      17.385379     -3.7299256     -0.73809862     11753.263    
     79000   443.79647      0.0395         0.31084758     0.31442228     0.31122249    -3080.8203      701.86506      701.86506      701.86506      3.4574896e+08  1.6423944     -34800241      -34800241       1321.5501     -34798920      -3067.8271     -3103.1066     -3071.5271      16.250271     -4.1470658      1.7096701      11662.337    
     80000   443.14723      0.04           0.31077368     0.31425195     0.31097294    -3079.1959      702.20266      702.20266      702.20266      3.4624811e+08  1.6400267     -34778602      -34778602       1319.6168     -34777283      -3067.0977     -3101.4256     -3069.0643      14.752402     -4.1132048      3.0693575      11770.881    
     81000   442.60455      0.0405         0.31080221     0.31400653     0.3109566     -3078.4286      702.54026      702.54026      702.54026      3.4674775e+08  1.6376636     -34756938      -34756938       1318.0008     -34755620      -3067.3793     -3099.0035     -3068.903       14.722943     -4.2848033      2.4716124      11732.212    
     82000   442.21619      0.041          0.31059165     0.31385801     0.31106087    -3077.5904      702.87786      702.87786      702.87786      3.4724786e+08  1.635305      -34735266      -34735266       1316.8443     -34733949      -3065.3012     -3097.5377     -3069.9321      16.055862     -4.1669048      0.43476581     11824.385    
     83000   442.1092       0.0415         0.31019691     0.31385446     0.31108722    -3076.3668      703.21545      703.21545      703.21545      3.4774846e+08  1.6329509     -34713600      -34713600       1316.5257     -34712283      -3061.4055     -3097.5027     -3070.1921      16.938294     -3.9140739     -1.4495396      11721.347    
     84000   441.8977       0.042          0.30988551     0.31383196     0.31088644    -3074.6078      703.55305      703.55305      703.55305      3.4824954e+08  1.6306013     -34691931      -34691931       1315.8959     -34690615      -3058.3322     -3097.2807     -3068.2106      16.527568     -3.8918077     -1.9296552      11837.85     
     85000   441.53074      0.0425         0.30942743     0.31340259     0.31038948    -3070.0535      703.89065      703.89065      703.89065      3.487511e+08   1.6282562     -34670257      -34670257       1314.8032     -34668942      -3053.8113     -3093.0431     -3063.306       14.688528     -4.1782834     -0.85952942     11637.228    
     86000   440.99751      0.043          0.3087745      0.31261313     0.30968084    -3062.9771      704.22825      704.22825      704.22825      3.4925314e+08  1.6259157     -34648596      -34648596       1313.2153     -34647283      -3047.3673     -3085.2517     -3056.3123      12.202914     -4.3642965      0.44356285     11878.563    
     87000   440.07737      0.0435         0.3080693      0.31185428     0.30895162    -3055.7618      704.56584      704.56584      704.56584      3.4975566e+08  1.6235796     -34626967      -34626967       1310.4753     -34625656      -3040.4076     -3077.7625     -3049.1155      11.068244     -4.7563946      0.78413042     11721.062    
     88000   439.06525      0.044          0.30749989     0.3112971      0.30837017    -3050.1428      704.90344      704.90344      704.90344      3.5025867e+08  1.621248      -34605362      -34605362       1307.4613     -34604054      -3034.7879     -3072.2635     -3043.377       11.792873     -5.6733249     -0.014358861    11814.419    
     89000   438.34632      0.0445         0.30713595     0.31103054     0.3079331     -3046.6308      705.24104      705.24104      705.24104      3.5076215e+08  1.6189208     -34583760      -34583760       1305.3205     -34582455      -3031.1962     -3069.6328     -3039.0634      12.323116     -5.637954      -0.47012929     11768.142    
     90000   437.79285      0.045          0.30681357     0.31086031     0.30747339    -3043.4979      705.57864      705.57864      705.57864      3.5126612e+08  1.6165981     -34562157      -34562157       1303.6723     -34560853      -3028.0146     -3067.9527     -3034.5264      11.312432     -4.5409498     -0.24774444     11691.677    
     91000   437.11311      0.0455         0.30607789     0.31014344     0.30668063    -3036.1114      705.91623      705.91623      705.91623      3.5177057e+08  1.6142799     -34540579      -34540579       1301.6482     -34539278      -3020.754      -3060.8778     -3026.7025      10.633327     -4.030151       0.54689465     11775.56     
     92000   436.90042      0.046          0.3049221      0.30880338     0.30557307    -3024.2571      706.25383      706.25383      706.25383      3.5227551e+08  1.611966      -34519060      -34519060       1301.0149     -34517759      -3009.3472     -3047.6524     -3015.7717      10.031228     -4.4644137      1.8839816      11712.744    
     93000   436.79714      0.0465         0.30390618     0.30745801     0.30448437    -3012.9075      706.59143      706.59143      706.59143      3.5278092e+08  1.6096566     -34497616      -34497616       1300.7073     -34496315      -2999.3208     -3034.3746     -3005.027       8.7668999     -5.1119047      2.7814945      11872.633    
     94000   435.96747      0.047          0.30309316     0.30636617     0.30355528    -3003.5845      706.92903      706.92903      706.92903      3.5328682e+08  1.6073516     -34476219      -34476219       1298.2367     -34474921      -2991.2969     -3023.599      -2995.8577      7.0985005     -5.2069918      2.0758029      11758.998    
     95000   434.40695      0.0475         0.302117       0.30541821     0.30270542    -2994.4589      707.26662      707.26662      707.26662      3.5379321e+08  1.605051      -34454850      -34454850       1293.5897     -34453556      -2981.663      -3014.2434     -2987.4703      6.5526498     -4.4952122      1.0814415      11851.133    
     96000   432.78134      0.048          0.30104423     0.304465       0.30171868    -2984.5478      707.60422      707.60422      707.60422      3.5430007e+08  1.6027548     -34433516      -34433516       1288.7489     -34432227      -2971.0756     -3004.836      -2977.7319      6.4526878     -4.3842858     -0.25407748     11558.495    
     97000   431.58077      0.0485         0.30003083     0.30346934     0.30051882    -2973.9912      707.94182      707.94182      707.94182      3.5480743e+08  1.600463      -34412241      -34412241       1285.1738     -34410956      -2961.074      -2995.0095     -2965.8902      5.6997279     -5.9156397     -0.99851564     11789.285    
     98000   430.74899      0.049          0.29887877     0.30229616     0.29923066    -2962.1041      708.27942      708.27942      708.27942      3.5531526e+08  1.5981755     -34391036      -34391036       1282.6969     -34389754      -2949.7041     -2983.4311     -2953.177       5.9527626     -6.8823198     -1.2427089      11534.828    
     99000   430.05823      0.0495         0.29755956     0.30095852     0.29790824    -2949.0133      708.61701      708.61701      708.61701      3.5582358e+08  1.5958924     -34369904      -34369904       1280.64       -34368623      -2936.6845     -2970.2297     -2940.1257      6.5893651     -7.0841545     -0.90738443     11702.75     
    100000   429.39869      0.05           0.29611649     0.29949989     0.29656965    -2935.0638      708.95461      708.95461      708.95461      3.5633238e+08  1.5936137     -34348853      -34348853       1278.676      -34347575      -2922.4425     -2955.8341     -2926.9149      5.6072228     -6.4964889      0.45128199     11395.002    
    101000   428.35146      0.0505         0.29479167     0.29800709     0.29530716    -2921.6413      709.29221      709.29221      709.29221      3.5684167e+08  1.5913392     -34327876      -34327876       1275.5575     -34326600      -2909.3676     -2941.1013     -2914.455       3.0229956     -5.7206057      1.2348789      11792.986    
    102000   426.57925      0.051          0.29352347     0.29655844     0.29394939    -2908.2368      709.62981      709.62981      709.62981      3.5735145e+08  1.5890691     -34306967      -34306967       1270.2802     -34305697      -2896.8514     -2926.8042     -2901.0549      0.72168002    -5.5814319      0.17277894     11717.482    
    103000   425.03046      0.0515         0.29212278     0.29495983     0.29235445    -2893.123       709.9674       709.9674       709.9674       3.578617e+08   1.5868034     -34286127      -34286127       1265.6681     -34284861      -2883.0277     -2911.0272     -2885.3141      0.13123938    -5.7743023     -1.4289556      11775.888    
    104000   423.78709      0.052          0.29067308     0.29332907     0.29072149    -2877.617       710.305        710.305        710.305        3.5837245e+08  1.5845419     -34265379      -34265379       1261.9656     -34264117      -2868.7202     -2894.9328     -2869.198       0.49581258    -5.5878238     -1.8591102      11689.297    
    105000   422.52558      0.0525         0.28917719     0.29172188     0.28911507    -2862.124       710.6426       710.6426       710.6426       3.5888368e+08  1.5822847     -34244737      -34244737       1258.209      -34243479      -2853.957      -2879.0711     -2853.3439      0.98301161    -5.7355456     -1.6374194      11667.117    
    106000   421.37074      0.053          0.28764909     0.29008588     0.28740864    -2846.1012      710.98019      710.98019      710.98019      3.593954e+08   1.5800318     -34224196      -34224196       1254.7701     -34222942      -2838.8758     -2862.925      -2836.5028      0.99391974    -5.4891058     -1.1318743      11786.945    
    107000   420.40895      0.0535         0.28607232     0.28845353     0.28576724    -2830.1442      711.31779      711.31779      711.31779      3.599076e+08   1.5777832     -34203740      -34203740       1251.9061     -34202488      -2823.3143     -2846.815      -2820.3034      0.17025451    -4.8590082     -0.31794004     11681.554    
    108000   419.2907       0.054          0.28435609     0.2868678      0.28438235    -2814.7257      711.65539      711.65539      711.65539      3.6042029e+08  1.5755388     -34183369      -34183369       1248.5761     -34182120      -2806.3764     -2831.165      -2806.6356     -1.3220605     -5.0338389      0.42159332     11871.657    
    109000   418.2448       0.0545         0.28246899     0.2851454      0.28291904    -2798.0374      711.99299      711.99299      711.99299      3.6093346e+08  1.5732987     -34163100      -34163100       1245.4616     -34161855      -2787.7522     -2814.1663     -2792.1938     -2.6684084     -6.3210011      0.29747115     11649.584    
    110000   417.22722      0.055          0.28071652     0.28337484     0.28129877    -2781.1173      712.33058      712.33058      712.33058      3.6144712e+08  1.5710629     -34142939      -34142939       1242.4314     -34141697      -2770.4567     -2796.6922     -2776.203      -2.8699467     -7.6831727     -1.6586426      11860.433    
    111000   415.91415      0.0555         0.27905132     0.28171719     0.27952204    -2764.341       712.66818      712.66818      712.66818      3.6196127e+08  1.5688312     -34122882      -34122882       1238.5213     -34121644      -2754.0224     -2780.3325     -2758.668      -2.3716384     -7.3444099     -3.3826781      11690.159    
    112000   414.69999      0.056          0.27719575     0.27981542     0.27748373    -2745.2748      713.00578      713.00578      713.00578      3.6247591e+08  1.5666038     -34102939      -34102939       1234.9057     -34101704      -2735.7093     -2761.5635     -2738.5515     -2.0170638     -5.7195755     -3.396908       11894.527    
    113000   413.50076      0.0565         0.27531449     0.27771343     0.27524456    -2724.8046      713.34338      713.34338      713.34338      3.6299104e+08  1.5643807     -34083118      -34083118       1231.3346     -34081886      -2717.1428     -2740.8185     -2716.4526     -2.41324       -4.4892337     -2.6038323      11624.151    
    114000   411.81432      0.057          0.2736158      0.27557679     0.27302235    -2704.8768      713.68097      713.68097      713.68097      3.6350665e+08  1.5621617     -34063423      -34063423       1226.3127     -34062196      -2700.378      -2719.7315     -2694.5211     -3.0301088     -4.4721941     -2.2165794      11915.366    
    115000   409.89443      0.0575         0.27198018     0.27343125     0.27111949    -2686.1779      714.01857      714.01857      714.01857      3.6402275e+08  1.5599469     -34043843      -34043843       1220.5956     -34042622      -2684.2356     -2698.5567     -2675.7413     -2.5750073     -5.4398002     -1.8128877      11657.928    
    116000   407.73951      0.058          0.27022757     0.27149171     0.2696401     -2669.1649      714.35617      714.35617      714.35617      3.6453934e+08  1.5577363     -34024370      -34024370       1214.1786     -34023156      -2666.9388     -2679.4149     -2661.1409     -1.6116197     -6.8994802     -0.792658       11790.96     
    117000   405.69957      0.0585         0.26816559     0.26977837     0.26811238    -2651.7192      714.69377      714.69377      714.69377      3.6505641e+08  1.5555299     -34005004      -34005004       1208.104      -34003796      -2646.5886     -2662.5055     -2646.0635     -1.8886231     -7.7954711     -0.16817196     11665.104    
    118000   404.4293       0.059          0.26595526     0.26814613     0.26635233    -2633.288       715.03136      715.03136      715.03136      3.6557398e+08  1.5533276     -33985757      -33985757       1204.3214     -33984553      -2624.7743     -2646.3966     -2628.6931     -3.1142382     -7.4602531     -1.1483334      11720.037    
    119000   403.93765      0.0595         0.26394627     0.26640932     0.2644867     -2614.8279      715.36896      715.36896      715.36896      3.6609203e+08  1.5511295     -33966629      -33966629       1202.8573     -33965426      -2604.9472     -2629.2555     -2610.2808     -3.36296       -6.3034114     -2.5791529      11825.107    
    120000   403.30011      0.06           0.26223422     0.26435974     0.26244566    -2595.7385      715.70656      715.70656      715.70656      3.6661058e+08  1.5489355     -33947618      -33947618       1200.9589     -33946417      -2588.0505     -2609.0278     -2590.1373     -2.8663781     -5.4484071     -2.9126286      11795.967    
    121000   402.18194      0.0605         0.2605855      0.26219348     0.26026567    -2576.0166      716.04416      716.04416      716.04416      3.6712961e+08  1.5467457     -33928726      -33928726       1197.6292     -33927529      -2571.7789     -2587.6484     -2568.6224     -2.4532514     -5.5400775     -1.8768539      11996.067    
    122000   400.46884      0.061          0.25881856     0.26025607     0.25832158    -2557.4347      716.38175      716.38175      716.38175      3.6764913e+08  1.54456       -33909955      -33909955       1192.5278     -33908762      -2554.3406     -2568.5277     -2549.4357     -2.7204576     -6.2479692     -1.0799664      11668.104    
    123000   398.10787      0.0615         0.25688823     0.25845739     0.25668812    -2539.7936      716.71935      716.71935      716.71935      3.6816915e+08  1.5423784     -33891290      -33891290       1185.4972     -33890104      -2535.2897     -2550.7762     -2533.3148     -3.8654349     -6.7137018     -1.3966524      11844.406    
    124000   395.61206      0.062          0.25489469     0.256456       0.25494802    -2520.9267      717.05695      717.05695      717.05695      3.6868965e+08  1.540201      -33872740      -33872740       1178.0652     -33871561      -2515.615      -2531.0239     -2516.1414     -4.5585955     -6.2313191     -1.3096552      11653.737    
    125000   393.79806      0.0625         0.25287276     0.25419577     0.25272492    -2499.5261      717.39455      717.39455      717.39455      3.6921064e+08  1.5380276     -33854326      -33854326       1172.6634     -33853153      -2495.6602     -2508.7172     -2494.201      -4.3527454     -5.6796794     -0.87063165     11791.18     
    126000   392.64767      0.063          0.2508884      0.25204235     0.25046467    -2478.4782      717.73214      717.73214      717.73214      3.6973213e+08  1.5358583     -33836050      -33836050       1169.2377     -33834881      -2476.076      -2487.4646     -2471.8941     -3.5542111     -5.3714557     -0.97755951     11814.661    
    127000   391.46586      0.0635         0.24903765     0.25025636     0.24859308    -2460.3573      718.06974      718.06974      718.06974      3.702541e+08   1.5336931     -33817892      -33817892       1165.7185     -33816727      -2457.8105     -2469.8383     -2453.423      -3.4444891     -5.4946861     -1.3146007      11712.999    
    128000   389.92895      0.064          0.24725834     0.24856382     0.24685845    -2443.2292      718.40734      718.40734      718.40734      3.7077657e+08  1.5315319     -33799844      -33799844       1161.1418     -33798683      -2440.2501     -2453.1341     -2436.3035     -3.8134897     -5.6761362     -0.79533333     11748.4      
    129000   388.33085      0.0645         0.24539134     0.24677285     0.24499812    -2425.0755      718.74494      718.74494      718.74494      3.7129952e+08  1.5293749     -33781913      -33781913       1156.383      -33780757      -2421.8242     -2435.4587     -2417.9435     -4.2393662     -5.3094362     -0.2502828      11696.098    
    130000   386.83703      0.065          0.24341885     0.24480533     0.24313771    -2405.9935      719.08253      719.08253      719.08253      3.7182297e+08  1.5272218     -33764110      -33764110       1151.9346     -33762958      -2402.3573     -2416.0407     -2399.5826     -4.3547717     -5.1144239      0.44322307     11894.564    
    131000   385.41149      0.0655         0.2414607      0.24264927     0.24136424    -2386.6246      719.42013      719.42013      719.42013      3.7234691e+08  1.5250728     -33746429      -33746429       1147.6896     -33745281      -2383.0318     -2394.7621     -2382.0798     -3.7962691     -5.6159546      0.62215724     11660.169    
    132000   383.97315      0.066          0.23957224     0.24056671     0.23957856    -2367.6865      719.75773      719.75773      719.75773      3.7287135e+08  1.5229278     -33728861      -33728861       1143.4065     -33727718      -2364.3942     -2374.2088     -2364.4565     -3.2776075     -5.7563028      0.33566557     11920.705    
    133000   382.41057      0.0665         0.23778887     0.23871781     0.23771328    -2349.601       720.09533      720.09533      720.09533      3.7339627e+08  1.5207869     -33711409      -33711409       1138.7534     -33710270      -2346.7936     -2355.9616     -2346.0477     -3.8875014     -4.8203697     -0.015359041    11746.753    
    134000   380.69074      0.067          0.23603773     0.23697013     0.23577015    -2331.6984      720.43292      720.43292      720.43292      3.7392169e+08  1.51865       -33694076      -33694076       1133.632      -33692943      -2329.5113     -2338.7134     -2326.8705     -5.2529846     -3.7156704     -0.12978196     11843.484    
    135000   378.96361      0.0675         0.23431844     0.23524826     0.23384599    -2314.0478      720.77052      720.77052      720.77052      3.744476e+08   1.516517      -33676864      -33676864       1128.4889     -33675735      -2312.5432     -2321.7198     -2307.8805     -6.0272925     -3.648227      -0.36872035     11712.073    
    136000   377.39066      0.068          0.23265633     0.23349397     0.23196299    -2296.6142      721.10812      721.10812      721.10812      3.74974e+08    1.5143881     -33659765      -33659765       1123.8049     -33658641      -2296.1395     -2304.4063     -2289.2967     -5.98788       -5.2853004     -0.58870602     11848.279    
    137000   375.83182      0.0685         0.23091186     0.2316738      0.2301814     -2279.0264      721.44572      721.44572      721.44572      3.7550089e+08  1.5122631     -33642773      -33642773       1119.163      -33641654      -2278.9228     -2286.4426     -2271.7138     -5.3261485     -6.7541435     -0.25899472     11676.084    
    138000   374.1406       0.069          0.22899755     0.22992367     0.22864842    -2261.9282      721.78331      721.78331      721.78331      3.7602828e+08  1.5101421     -33625882      -33625882       1114.1268     -33624767      -2260.0301     -2269.1702     -2256.5845     -4.373971      -6.4603934      0.55088845     11789.654    
    139000   372.78703      0.0695         0.22700202     0.22806939     0.22717889    -2244.429       722.12091      722.12091      722.12091      3.7655617e+08  1.5080251     -33609099      -33609099       1110.0961     -33607989      -2240.3358     -2250.8699     -2242.0814     -4.4847722     -4.8723117      1.2788219      11784.828    
    140000   371.95289      0.07           0.22525539     0.2262386      0.22565699    -2227.6535      722.45851      722.45851      722.45851      3.7708454e+08  1.5059121     -33592432      -33592432       1107.6122     -33591325      -2223.0978     -2232.8014     -2227.0613     -5.8216891     -3.2104304      1.4232803      10352.814    
    141000   370.82193      0.0705         0.22379617     0.22462148     0.22410938    -2212.4419      722.7961       722.7961       722.7961       3.7761341e+08  1.5038029     -33575873      -33575873       1104.2444     -33574769      -2208.6964     -2216.8417     -2211.7876     -7.1481434     -1.9420373      0.74651955     11876.119    
    142000   369.3453       0.071          0.22223681     0.22297918     0.22242355    -2196.3633      723.1337       723.1337       723.1337       3.7814278e+08  1.5016977     -33559418      -33559418       1099.8472     -33558318      -2193.3067     -2200.6334     -2195.1498     -6.9212001     -1.2192514      0.6846341      11693.045    
    143000   368.03979      0.0715         0.22046513     0.22121646     0.22065768    -2178.9268      723.4713       723.4713       723.4713       3.7867264e+08  1.4995965     -33543077      -33543077       1095.9596     -33541981      -2175.8217     -2183.2368     -2177.722      -5.4890658     -1.3406007      1.3553548      11800.742    
    144000   366.65341      0.072          0.21862031     0.21953019     0.2189458     -2161.6788      723.8089       723.8089       723.8089       3.7920299e+08  1.4974992     -33526846      -33526846       1091.8312     -33525754      -2157.6147     -2166.5945     -2160.827      -4.4200158     -1.6171534      1.5059698      11650.168    
    145000   364.82212      0.0725         0.21694976     0.21810323     0.21738069    -2146.3399      724.14649      724.14649      724.14649      3.7973384e+08  1.4954057     -33510706      -33510706       1086.378      -33509620      -2141.1277     -2152.5115     -2145.3806     -4.4865854     -2.4980268      0.75592871     11814.64     
    146000   362.69596      0.073          0.21554554     0.21678245     0.21602512    -2132.9159      724.48409      724.48409      724.48409      3.8026518e+08  1.4933162     -33494647      -33494647       1080.0466     -33493567      -2127.2691     -2139.4764     -2132.0022     -4.8676818     -4.1121394     -0.18049423     11796.928    
    147000   360.91656      0.0735         0.21425012     0.21526061     0.21466579    -2119.176       724.82169      724.82169      724.82169      3.8079702e+08  1.4912306     -33478670      -33478670       1074.7479     -33477595      -2114.4843     -2124.4571     -2118.5866     -5.2035955     -4.9782626     -0.35505293     11806.293    
    148000   359.87546      0.074          0.21273325     0.21360352     0.21314741    -2103.7394      725.15929      725.15929      725.15929      3.8132936e+08  1.4891488     -33462796      -33462796       1071.6477     -33461724      -2099.5139     -2108.1028     -2103.6014     -5.4244842     -4.1892514      0.893401       11800.262    
    149000   359.17921      0.0745         0.21099443     0.21207285     0.21155474    -2087.7441      725.49688      725.49688      725.49688      3.8186219e+08  1.4870709     -33447035      -33447035       1069.5743     -33445966      -2082.3531     -2092.9963     -2087.8829     -5.381845      -2.5993916      2.3093419      11668.717    
    150000   358.28775      0.075          0.20945444     0.21075506     0.21009874    -2073.5529      725.83448      725.83448      725.83448      3.8239551e+08  1.4849969     -33431372      -33431372       1066.9197     -33430305      -2067.1546     -2079.9907     -2073.5133     -5.2835613     -1.1044583      2.2233804      11540.698    
    151000   356.81988      0.0755         0.20816929     0.20953019     0.2088682     -2061.2474      726.17208      726.17208      726.17208      3.8292934e+08  1.4829267     -33415786      -33415786       1062.5487     -33414723      -2054.4711     -2067.9022     -2061.3688     -5.2480121     -0.2040458      1.3440561      11579.164    
    152000   355.23348      0.076          0.20696577     0.20822102     0.20771051    -2049.1728      726.50968      726.50968      726.50968      3.8346366e+08  1.4808604     -33400268      -33400268       1057.8246     -33399210      -2042.5933     -2054.9817     -2049.9433     -4.820575       0.45954352     0.42905961     11876.93     
    153000   354.19991      0.0765         0.20574931     0.20687603     0.20651726    -2036.8208      726.84727      726.84727      726.84727      3.8399847e+08  1.4787979     -33384826      -33384826       1054.7469     -33383771      -2030.5878     -2041.7076     -2038.1669     -3.8144176     -0.30492707    -0.55611465     11611.26     
    154000   353.545        0.077          0.20456807     0.20566642     0.2053217     -2025.0224      727.18487      727.18487      727.18487      3.8453379e+08  1.4767393     -33369461      -33369461       1052.7967     -33368408      -2018.9298     -2029.7697     -2026.3677     -3.2001454     -1.9295475     -1.2860559      11881.495    
    155000   352.57683      0.0775         0.20335296     0.20450383     0.20417679    -2013.434       727.52247      727.52247      727.52247      3.850696e+08   1.4746845     -33354164      -33354164       1049.9136     -33353114      -2006.9377     -2018.2959     -2015.0683     -2.7645339     -2.6325524     -1.2387222      11697.33     
    156000   351.3714       0.078          0.20206038     0.20318374     0.20302309    -2001.0436      727.86007      727.86007      727.86007      3.8560591e+08  1.4726334     -33338942      -33338942       1046.324      -33337896      -1994.1809     -2005.2676     -2003.6821     -2.0059769     -1.9065327     -0.79513921     11802.338    
    157000   350.09952      0.0785         0.20087264     0.20177819     0.20180414    -1988.5022      728.19766      728.19766      728.19766      3.8614271e+08  1.4705862     -33323800      -33323800       1042.5366     -33322757      -1982.4588     -1991.3959     -1991.652      -1.5646617     -1.1580807     -0.082977021    11702.446    
    158000   348.63981      0.079          0.19966075     0.20052669     0.20047019    -1976.01        728.53526      728.53526      728.53526      3.8668002e+08  1.4685428     -33308739      -33308739       1038.1898     -33307701      -1970.4984     -1979.0446     -1978.487      -2.0852516     -1.0643114      0.40019843     11777.37     
    159000   347.42344      0.0795         0.19837925     0.19946618     0.1991642     -1964.009       728.87286      728.87286      728.87286      3.8721782e+08  1.4665032     -33293756      -33293756       1034.5677     -33292722      -1957.8509     -1968.5781     -1965.5978     -3.1648445     -1.3062689      0.57013214     11730.744    
    160000   346.39076      0.08           0.19737357     0.19855282     0.19817041    -1954.4265      729.21046      729.21046      729.21046      3.8775612e+08  1.4644673     -33278833      -33278833       1031.4925     -33277802      -1947.9256     -1959.5639     -1955.7899     -3.5627317     -1.4391519      1.1537117      11738.634    
    161000   345.58691      0.0805         0.19663079     0.19757416     0.19743401    -1946.3409      729.54805      729.54805      729.54805      3.8829492e+08  1.4624352     -33263952      -33263952       1029.0988     -33262923      -1940.595      -1949.9054     -1948.5222     -3.5425753     -1.1571694      1.9937555      11745.883    
    162000   345.30842      0.081          0.19589253     0.19659114     0.19675844    -1938.4558      729.88565      729.88565      729.88565      3.8883422e+08  1.4604068     -33249120      -33249120       1028.2695     -33248091      -1933.309      -1940.2037     -1941.8548     -3.072078      -0.94439817     1.5499358      11707.923    
    163000   345.09696      0.0815         0.19501844     0.19567776     0.19581788    -1929.4813      730.22325      730.22325      730.22325      3.8937402e+08  1.4583823     -33234352      -33234352       1027.6398     -33233324      -1924.6823     -1931.1894     -1932.5722     -2.5887209     -1.515771       0.36352152     11709.117    
    164000   344.43197      0.082          0.19386582     0.19474706     0.19461203    -1918.6608      730.56085      730.56085      730.56085      3.8991431e+08  1.4563614     -33219647      -33219647       1025.6596     -33218621      -1913.3069     -1922.0041     -1920.6714     -2.7112793     -2.2381406     -0.51321242     11668.904    
    165000   343.23726      0.0825         0.1926559      0.19379043     0.19339279    -1907.5224      730.89844      730.89844      730.89844      3.9045511e+08  1.4543443     -33205001      -33205001       1022.102      -33203979      -1901.3659     -1912.5629     -1908.6385     -2.8791481     -2.6607447     -0.6205915      11711.279    
    166000   341.69055      0.083          0.19168325     0.19300684     0.1924463     -1898.6311      731.23604      731.23604      731.23604      3.9099641e+08  1.4523309     -33190408      -33190408       1017.4961     -33189391      -1891.7666     -1904.8294     -1899.2973     -3.1079445     -2.0778084     -0.91623609     11605.37     
    167000   340.11137      0.0835         0.19098731     0.19231672     0.19173523    -1891.7321      731.57364      731.57364      731.57364      3.915382e+08   1.4503212     -33175853      -33175853       1012.7936     -33174841      -1884.8982     -1898.0185     -1892.2796     -3.3889283     -1.5940438     -1.3272626      11725.228    
    168000   339.2923       0.084          0.19035255     0.1914572      0.19103434    -1884.5105      731.91124      731.91124      731.91124      3.920805e+08   1.4483152     -33161339      -33161339       1010.3545     -33160328      -1878.6336     -1889.5357     -1885.3624     -3.0089294     -1.4693697     -1.2721172      11734.255    
    169000   339.30685      0.0845         0.18949582     0.19033818     0.19006948    -1874.8367      732.24883      732.24883      732.24883      3.926233e+08   1.4463129     -33146883      -33146883       1010.3978     -33145872      -1870.1784     -1878.4917     -1875.8399     -2.0301093     -1.4344297     -1.2872626      11796.109    
    170000   339.41863      0.085          0.18847939     0.18919358     0.18897262    -1864.1191      732.58643      732.58643      732.58643      3.9316659e+08  1.4443144     -33132497      -33132497       1010.7307     -33131486      -1860.147      -1867.1955     -1865.0148     -1.5466613     -1.5356212     -1.47794        11600.01     
    171000   339.04665      0.0855         0.18755883     0.18819166     0.18807745    -1854.8497      732.92403      732.92403      732.92403      3.9371039e+08  1.4423194     -33118172      -33118172       1009.623      -33117162      -1851.0618     -1857.3073     -1856.1801     -1.8268551     -2.0860275     -1.3955811      11689.068    
    172000   338.22786      0.086          0.18689859     0.18742549     0.18744808    -1848.0867      733.26163      733.26163      733.26163      3.9425469e+08  1.4403282     -33103886      -33103886       1007.1848     -33102879      -1844.5457     -1849.7458     -1849.9687     -2.0498535     -2.6817218     -0.65898206     11669.371    
    173000   337.38907      0.0865         0.18643871     0.18696065     0.18701663    -1843.6253      733.59922      733.59922      733.59922      3.9479949e+08  1.4383406     -33089628      -33089628       1004.687      -33088624      -1840.007      -1845.1581     -1845.7106     -1.6421314     -2.6599908     -0.10806237     11666.301    
    174000   336.53871      0.087          0.18603583     0.18665519     0.1865709     -1839.8287      733.93682      733.93682      733.93682      3.953448e+08   1.4363567     -33075391      -33075391       1002.1548     -33074388      -1836.0309     -1842.1435     -1841.3116     -1.0078226     -2.5552769     -0.41633005     11691.892    
    175000   336.12347      0.0875         0.1854554      0.18606903     0.18589881    -1833.7799      734.27442      734.27442      734.27442      3.958906e+08   1.4343764     -33061175      -33061175       1000.9183     -33060174      -1830.3025     -1836.3586     -1834.6786     -0.97056439    -2.2380835     -0.92311178     11771.526    
    176000   336.01604      0.088          0.18469952     0.18523295     0.18514485    -1826.0624      734.61202      734.61202      734.61202      3.9643691e+08  1.4323998     -33047000      -33047000       1000.5984     -33046000      -1822.8425     -1828.1071     -1827.2376     -1.480018      -1.7832261     -1.4213012      11652.989    
    177000   335.41133      0.0885         0.18385717     0.18437201     0.18429729    -1817.6707      734.94961      734.94961      734.94961      3.9698372e+08  1.4304268     -33032868      -33032868       998.79766     -33031870      -1814.5292     -1819.6103     -1818.8728     -2.2548389     -1.948959      -2.1221343      11556.224    
    178000   334.55386      0.089          0.18300762     0.18356422     0.18340264    -1809.2754      735.28721      735.28721      735.28721      3.9753103e+08  1.4284574     -33018777      -33018777       996.24427     -33017780      -1806.1447     -1811.638      -1810.0433     -2.5278812     -2.3355764     -2.7166703      11777.952    
    179000   334.10555      0.0895         0.18220251     0.18289154     0.18263422    -1801.8859      735.62481      735.62481      735.62481      3.9807885e+08  1.4264917     -33004734      -33004734       994.90929     -33003739      -1798.199      -1804.9991     -1802.4596     -2.1349268     -2.804242      -2.5126304      11652.962    
    180000   333.8939       0.09           0.18145798     0.18235496     0.1819721     -1795.4932      735.9624       735.9624       735.9624       3.9862716e+08  1.4245295     -32990744      -32990744       994.27902     -32989750      -1790.851      -1799.7036     -1795.925      -2.118416      -3.030537      -2.3928096      11803.87     
    181000   333.6505       0.0905         0.18083193     0.181747       0.18142878    -1789.6462      736.3          736.3          736.3          3.9917598e+08  1.4225709     -32976795      -32976795       993.55422     -32975801      -1784.6724     -1793.7035     -1790.5629     -2.3448596     -2.4784254     -2.4559034      11532.065    
    182000   333.50282      0.091          0.18037968     0.18113353     0.18093342    -1784.5106      736.6376       736.6376       736.6376       3.9972531e+08  1.420616      -32962873      -32962873       993.11445     -32961880      -1780.209      -1787.6489     -1785.674      -2.5284032     -1.7699232     -1.9996025      11815.671    
    183000   333.34979      0.0915         0.18008542     0.18054004     0.18040102    -1779.8387      736.9752       736.9752       736.9752       4.0027514e+08  1.4186646     -32948970      -32948970       992.65875     -32947977      -1777.3049     -1781.7917     -1780.4196     -1.7287219     -1.6753926     -1.413107       11561.691    
    184000   333.17893      0.092          0.17973172     0.1798573      0.1798095     -1774.4832      737.31279      737.31279      737.31279      4.0082547e+08  1.4167167     -32935087      -32935087       992.14997     -32934095      -1773.8142     -1775.0536     -1774.5818     -0.30198347    -1.9549307     -1.5485362      11793.91     
    185000   333.17325      0.0925         0.1792565      0.17926874     0.17928225    -1769.2491      737.65039      737.65039      737.65039      4.0137631e+08  1.4147725     -32921234      -32921234       992.13304     -32920242      -1769.1241     -1769.245      -1769.3782     -0.28774503    -2.344196      -2.5171062      11623.425    
    186000   332.93527      0.093          0.1787066      0.17893257     0.17880635    -1764.7685      737.98799      737.98799      737.98799      4.0192765e+08  1.4128318     -32907410      -32907410       991.42437     -32906419      -1763.697      -1765.9272     -1764.6815     -1.468259      -2.705047      -2.605871       11749.627    
    187000   332.24176      0.0935         0.17795742     0.17846851     0.17815457    -1758.6331      738.32559      738.32559      738.32559      4.0247949e+08  1.4108946     -32893613      -32893613       989.35924     -32892624      -1756.3032     -1761.3473     -1758.2489     -2.1339526     -2.9183304     -1.6299627      11817.278    
    188000   331.54075      0.094          0.17700437     0.17764771     0.17734363    -1750.1298      738.66318      738.66318      738.66318      4.0303184e+08  1.408961      -32879858      -32879858       987.27175     -32878870      -1746.8973     -1753.2466     -1750.2455     -2.1904792     -3.0355966     -0.74794593     11659.376    
    189000   330.99846      0.0945         0.17619145     0.17679122     0.17665448    -1742.3708      739.00078      739.00078      739.00078      4.035847e+08   1.4070309     -32866152      -32866152       985.65689     -32865166      -1738.8744     -1744.7937     -1743.4442     -2.428831      -2.8010404     -0.70333963     11738.51     
    190000   330.3598       0.095          0.17574558     0.17626435     0.17618936    -1737.6406      739.33838      739.33838      739.33838      4.0413806e+08  1.4051044     -32852479      -32852479       983.75508     -32851496      -1734.474      -1739.5938     -1738.8538     -2.6209789     -1.7569839     -0.93765345     11343.247    
    191000   330.1856       0.0955         0.17540399     0.17599274     0.17566829    -1733.9091      739.67598      739.67598      739.67598      4.0469193e+08  1.4031813     -32838828      -32838828       983.23633     -32837845      -1731.1028     -1736.9133     -1733.7112     -1.7630225     -0.32639296    -1.1023269      11793.507    
    192000   330.82362      0.096          0.17501441     0.17567583     0.1751063     -1729.7361      740.01357      740.01357      740.01357      4.052463e+08   1.4012618     -32825196      -32825196       985.13625     -32824211      -1727.2579     -1733.7856     -1728.1648     -0.42809588    -0.15770602    -2.1233076      11549.523    
    193000   331.23269      0.0965         0.17467782     0.1751206      0.17462214    -1725.2095      740.35117      740.35117      740.35117      4.0580118e+08  1.3993458     -32811585      -32811585       986.35439     -32810598      -1723.9361     -1728.3059     -1723.3865     -0.22496469    -1.8606253     -3.0167627      11838.763    
    194000   331.12868      0.097          0.17430254     0.17434638     0.1740737     -1719.6237      740.68877      740.68877      740.68877      4.0635656e+08  1.3974332     -32798004      -32798004       986.04467     -32797018      -1720.2323     -1720.665      -1717.9738     -1.1353498     -2.9369047     -2.7528953      11609.512    
    195000   330.82523      0.0975         0.17387305     0.17363194     0.1735652     -1714.1877      741.02637      741.02637      741.02637      4.0691245e+08  1.3955241     -32784457      -32784457       985.14106     -32783472      -1715.9936     -1713.614      -1712.9554     -2.4517823     -2.3808416     -2.2799487      11906.099    
    196000   330.23425      0.098          0.17332698     0.17314165     0.17308666    -1709.204       741.36396      741.36396      741.36396      4.0746885e+08  1.3936186     -32770934      -32770934       983.3812      -32769951      -1710.6043     -1708.7752     -1708.2325     -3.2725133     -1.2387499     -2.6528717      11655.753    
    197000   329.68921      0.0985         0.17262421     0.17263808     0.17259097    -1703.6048      741.70156      741.70156      741.70156      4.0802576e+08  1.3917164     -32757435      -32757435       981.75818     -32756453      -1703.6685     -1703.8053     -1703.3405     -2.8908882     -0.79866994    -2.8209456      11709.693    
    198000   329.56109      0.099          0.17186205     0.17208098     0.17213462    -1697.7634      742.03916      742.03916      742.03916      4.0858317e+08  1.3898178     -32743968      -32743968       981.37666     -32742987      -1696.1465     -1698.3072     -1698.8366     -1.3256809     -1.4844608     -1.8044574      11690.053    
    199000   329.45954      0.0995         0.17126225     0.17169648     0.17166213    -1692.971       742.37676      742.37676      742.37676      4.0914109e+08  1.3879226     -32730530      -32730530       981.07426     -32729549      -1690.227      -1694.5125     -1694.1735     -0.13160402    -2.560111      -1.0553356      11781.843    
    200000   329.15485      0.1            0.17086767     0.17142064     0.17114881    -1689.0768      742.71435      742.71435      742.71435      4.0969952e+08  1.3860308     -32717116      -32717116       980.16693     -32716136      -1686.3328     -1691.7902     -1689.1074     -0.86156702    -3.5151297     -2.2654901      11382.443    
    201000   328.78022      0.1005         0.1705375      0.17095435     0.17070693    -1685.003       743.05195      743.05195      743.05195      4.1025845e+08  1.3841425     -32703722      -32703722       979.05135     -32702743      -1683.0743     -1687.1882     -1684.7464     -1.7564771     -3.0632622     -3.6438999      11686.116    
    202000   328.8654       0.101          0.17008026     0.170256       0.17029014    -1679.8302      743.38955      743.38955      743.38955      4.1081789e+08  1.3822576     -32690352      -32690352       979.30502     -32689373      -1678.5616     -1680.2961     -1680.633      -1.4025325     -1.5828108     -3.0129028      11777.677    
    203000   329.28575      0.1015         0.16958503     0.16968396     0.16965799    -1674.2396      743.72715      743.72715      743.72715      4.1137785e+08  1.3803761     -32677015      -32677015       980.55673     -32676035      -1673.6742     -1674.6504     -1674.3942     -1.0920773     -0.91623397    -1.8552156      11655.135    
    204000   329.06514      0.102          0.16926089     0.16944071     0.16899256    -1670.1839      744.06474      744.06474      744.06474      4.1193831e+08  1.3784981     -32663704      -32663704       979.89979     -32662724      -1670.4751     -1672.2498     -1667.8269     -1.6435635     -1.3522729     -1.9809036      11805.459    
    205000   328.4275       0.1025         0.16893685     0.16917196     0.16847379    -1666.5272      744.40234      744.40234      744.40234      4.1249928e+08  1.3766234     -32650406      -32650406       978.00102     -32649428      -1667.2771     -1669.5974     -1662.707      -1.6782621     -1.8048972     -1.7107042      11596.891    
    206000   328.38375      0.103          0.16844214     0.16864685     0.16814497    -1662.0905      744.73994      744.73994      744.73994      4.1306075e+08  1.3747521     -32637129      -32637129       977.87073     -32636151      -1662.3946     -1664.415      -1659.4618     -0.56189558    -2.7253766     -0.62821982     11800.15     
    207000   328.6027       0.1035         0.16785247     0.16803238     0.16780312    -1657.0046      745.07754      745.07754      745.07754      4.1362274e+08  1.3728843     -32623879      -32623879       978.52273     -32622901      -1656.5751     -1658.3507     -1656.0881     -0.24640135    -3.1566634     -1.0122604      11607.094    
    208000   328.69265      0.104          0.1672489      0.16744131     0.16740151    -1651.7534      745.41513      745.41513      745.41513      4.1418524e+08  1.3710198     -32610659      -32610659       978.79057     -32609680      -1650.6183     -1652.5173     -1652.1245     -1.4657087     -1.8248479     -2.4580135      11835.371    
    209000   328.76999      0.1045         0.1667369      0.16695839     0.16699146    -1647.1313      745.75273      745.75273      745.75273      4.1474824e+08  1.3691587     -32597470      -32597470       979.02089     -32596491      -1645.5653     -1647.7512     -1648.0776     -2.5934799     -0.54649119    -3.0301605      11711.369    
    210000   328.734        0.105          0.16634493     0.16661307     0.16652362    -1643.1668      746.09033      746.09033      746.09033      4.1531176e+08  1.3673009     -32584306      -32584306       978.9137      -32583327      -1641.6969     -1644.3432     -1643.4603     -1.956369      -0.35112272    -2.9432256      11727.736    
    211000   328.49848      0.1055         0.16600513     0.16628615     0.16600146    -1639.2557      746.42793      746.42793      746.42793      4.1587579e+08  1.3654465     -32571156      -32571156       978.21237     -32570177      -1638.3433     -1641.1167     -1638.307      -1.1197472     -0.84359126    -2.6137588      11651.416    
    212000   328.18178      0.106          0.16553251     0.16581505     0.16551341    -1634.5455      746.76552      746.76552      746.76552      4.1644032e+08  1.3635955     -32558023      -32558023       977.2693      -32557046      -1633.6788     -1636.4673     -1633.4903     -0.96353993    -1.0375153     -1.6834406      11677.952    
    213000   327.98939      0.1065         0.16501962     0.16521194     0.16501176    -1629.2238      747.10312      747.10312      747.10312      4.1700537e+08  1.3617478     -32544919      -32544919       976.69639     -32543942      -1628.617      -1630.5151     -1628.5395     -1.0721688     -0.83829462    -0.50267762     11608.474    
    214000   327.69938      0.107          0.16467677     0.16473002     0.1644894     -1624.7921      747.44072      747.44072      747.44072      4.1757093e+08  1.3599035     -32531847      -32531847       975.83281     -32530871      -1625.2333     -1625.7589     -1623.3841     -1.1994129     -0.831067      -0.47980867     11651.532    
    215000   327.28067      0.1075         0.16432053     0.16429966     0.1639966     -1620.5832      747.77831      747.77831      747.77831      4.18137e+08    1.3580624     -32518796      -32518796       974.58594     -32517821      -1621.7176     -1621.5115     -1618.5206     -1.6049774     -1.1270391     -1.193416       11823.224    
    216000   327.30968      0.108          0.16379511     0.16384301     0.16349971    -1615.7178      748.11591      748.11591      748.11591      4.1870358e+08  1.3562247     -32505765      -32505765       974.67234     -32504790      -1616.532      -1617.0048     -1613.6166     -1.8336259     -1.8690362     -1.6782359      11716.944    
    217000   327.70006      0.1085         0.16326236     0.16351334     0.16313584    -1611.6836      748.45351      748.45351      748.45351      4.1927068e+08  1.3543903     -32492756      -32492756       975.83482     -32491780      -1611.2742     -1613.7512     -1610.0256     -1.4719506     -2.4888407     -2.0243463      11833.987    
[...]
   2969000   323.59808      1.4845         0.013989549    0.013913416    0.013843489   -137.33515      1677.5216      1677.5216      1677.5216      4.7206782e+09  0.12029122    -10978077      -10978077       963.61983     -10977113      -138.06612     -137.31474     -136.62461      0.16875008     0.45964624     0.59546341     11536.391    
   2970000   323.60455      1.485          0.013979302    0.013900227    0.013835216   -137.23084      1677.8592      1677.8592      1677.8592      4.7235289e+09  0.12021863    -10972521      -10972521       963.63909     -10971557      -137.96498     -137.18458     -136.54297      0.16497512     0.45495876     0.640625       11398.195    
   2971000   323.5966       1.4855         0.013967688    0.013891608    0.01382553    -137.13242      1678.1968      1678.1968      1678.1968      4.7263807e+09  0.12014609    -10966966      -10966966       963.61542     -10966003      -137.85037     -137.09951     -136.44738      0.18448354     0.43262418     0.69034596     11352.694    
   2972000   323.59011      1.486          0.013956073    0.013884664    0.013814387   -137.0347       1678.5344      1678.5344      1678.5344      4.7292336e+09  0.12007361    -10961414      -10961414       963.59609     -10960450      -137.73573     -137.03098     -136.3374       0.20824349     0.40599315     0.71874775     11507.271    
   2973000   323.59457      1.4865         0.013946556    0.01387728     0.013802855   -136.94116      1678.872       1678.872       1678.872       4.7320877e+09  0.12000119    -10955863      -10955863       963.60936     -10954899      -137.6418      -136.9581      -136.22359      0.22294043     0.38253637     0.70870495     11345.607    
   2974000   323.59291      1.487          0.013938735    0.013868946    0.013791086   -136.8493       1679.2096      1679.2096      1679.2096      4.734943e+09   0.11992883    -10950314      -10950314       963.60442     -10949350      -137.56462     -136.87586     -136.10743      0.22999088     0.36962958     0.67148109     11435.84     
   2975000   323.56304      1.4875         0.013931538    0.013859322    0.013778917   -136.75393      1679.5472      1679.5472      1679.5472      4.7377993e+09  0.11985652    -10944766      -10944766       963.51549     -10943803      -137.49359     -136.78087     -135.98734      0.22764821     0.37128034     0.63443627     11387.268    
   2976000   323.52851      1.488          0.013923911    0.013847764    0.013765621   -136.64708      1679.8848      1679.8848      1679.8848      4.7406569e+09  0.11978428    -10939220      -10939220       963.41266     -10938257      -137.41832     -136.66681     -135.85611      0.20456346     0.38071547     0.61225935     11546.306    
   2977000   323.51981      1.4885         0.013916408    0.013837843    0.013754727   -136.55392      1680.2224      1680.2224      1680.2224      4.7435156e+09  0.11971209    -10933676      -10933676       963.38675     -10932713      -137.34427     -136.56889     -135.7486       0.1614546      0.39339015     0.61262167     11553.894    
   2978000   323.5408       1.489          0.013907793    0.013831655    0.013748281   -136.48401      1680.56        1680.56        1680.56        4.7463754e+09  0.11963996    -10928134      -10928134       963.44926     -10927170      -137.25925     -136.50782     -135.68498      0.12491312     0.40819958     0.63331239     11486.888    
   2979000   323.57308      1.4895         0.013897347    0.013826392    0.01374549    -136.42316      1680.8976      1680.8976      1680.8976      4.7492364e+09  0.11956789    -10922591      -10922591       963.54539     -10921628      -137.15615     -136.45588     -135.65744      0.12020885     0.42663579     0.65509439     11469.085    
   2980000   323.58843      1.49           0.01388739     0.013819803    0.013743109   -136.36089      1681.2352      1681.2352      1681.2352      4.7520985e+09  0.11949587    -10917049      -10917049       963.59109     -10916086      -137.05789     -136.39085     -135.63394      0.14076729     0.44382095     0.64942068     11555.313    
   2981000   323.58558      1.4905         0.013879001    0.013808423    0.013737026   -136.27584      1681.5728      1681.5728      1681.5728      4.7549618e+09  0.11942391    -10911508      -10911508       963.58261     -10910544      -136.97509     -136.27854     -135.5739       0.15664742     0.44991465     0.61976496     11356.97     
   2982000   323.57944      1.491          0.013872001    0.013795111    0.013726768   -136.17528      1681.9104      1681.9104      1681.9104      4.7578263e+09  0.11935202    -10905968      -10905968       963.56432     -10905005      -136.906       -136.14716     -135.47267      0.15117016     0.44793884     0.58739964     11387.976    
   2983000   323.57268      1.4915         0.013865745    0.013785444    0.013714687   -136.08315      1682.248       1682.248       1682.248       4.7606918e+09  0.11928017    -10900430      -10900430       963.54418     -10899467      -136.84426     -136.05176     -135.35344      0.12938053     0.44778596     0.56512572     11420.288    
   2984000   323.55974      1.492          0.013858743    0.013778736    0.013702063   -135.99652      1682.5856      1682.5856      1682.5856      4.7635586e+09  0.11920839    -10894894      -10894894       963.50566     -10893930      -136.77516     -135.98556     -135.22885      0.10745093     0.44741364     0.56089791     11385.277    
   2985000   323.5371       1.4925         0.013850741    0.013772962    0.013690922   -135.91455      1682.9232      1682.9232      1682.9232      4.7664265e+09  0.11913667    -10889358      -10889358       963.43823     -10888395      -136.69618     -135.92856     -135.11889      0.10161553     0.44386469     0.57518729     11369.042    
   2986000   323.51402      1.493          0.013839891    0.013765065    0.013680127   -135.81737      1683.2608      1683.2608      1683.2608      4.7692955e+09  0.119065      -10883824      -10883824       963.36949     -10882861      -136.58911     -135.85063     -135.01236      0.11776466     0.44412591     0.59795614     11247.771    
   2987000   323.48811      1.4935         0.013826836    0.013751906    0.013668805   -135.69388      1683.5984      1683.5984      1683.5984      4.7721657e+09  0.11899339    -10878292      -10878292       963.29235     -10877329      -136.46026     -135.72076     -134.90062      0.14689481     0.45024765     0.60550901     11348.089    
   2988000   323.44534      1.494          0.013813763    0.013735899    0.013658337   -135.56378      1683.936       1683.936       1683.936       4.775037e+09   0.11892183    -10872764      -10872764       963.165       -10871800      -136.33124     -135.56279     -134.79731      0.16669282     0.44835057     0.58280388     11520.753    
   2989000   323.39484      1.4945         0.013800663    0.013723       0.013648593   -135.44619      1684.2736      1684.2736      1684.2736      4.7779095e+09  0.11885034    -10867238      -10867238       963.0146      -10866275      -136.20195     -135.43548     -134.70114      0.15838444     0.43070468     0.55210957     11429.85     
   2990000   323.36645      1.495          0.013786654    0.013714051    0.013638593   -135.33777      1684.6112      1684.6112      1684.6112      4.7807832e+09  0.1187789     -10861714      -10861714       962.93006     -10860751      -136.0637      -135.34716     -134.60245      0.11456029     0.41135327     0.539215       11496.294    
   2991000   323.37095      1.4955         0.013772719    0.013707274    0.013629015   -135.23812      1684.9488      1684.9488      1684.9488      4.7836579e+09  0.11870752    -10856193      -10856193       962.94348     -10855230      -135.92617     -135.28027     -134.50792      0.071614759    0.40515273     0.54760987     11411.344    
   2992000   323.38692      1.496          0.01376129     0.013700745    0.013620914   -135.15239      1685.2864      1685.2864      1685.2864      4.7865339e+09  0.11863619    -10850673      -10850673       962.99104     -10849710      -135.81337     -135.21584     -134.42797      0.067641285    0.4010766      0.57791176     11548.64     
   2993000   323.40659      1.4965         0.013753393    0.013691958    0.013613908   -135.07446      1685.624       1685.624       1685.624       4.789411e+09   0.11856492    -10845154      -10845154       963.04961     -10844191      -135.73543     -135.12912     -134.35883      0.093101368    0.38671811     0.61305996     11478.908    
   2994000   323.42981      1.497          0.013747667    0.013680735    0.013607057   -134.99617      1685.9616      1685.9616      1685.9616      4.7922892e+09  0.11849371    -10839636      -10839636       963.11874     -10838673      -135.67893     -135.01836     -134.29121      0.11739462     0.37417697     0.64073571     11413.31     
   2995000   323.44713      1.4975         0.013741127    0.013669906    0.013597623   -134.90799      1686.2992      1686.2992      1686.2992      4.7951687e+09  0.11842256    -10834119      -10834119       963.17033     -10833156      -135.61438     -134.91148     -134.19811      0.12850843     0.38045345     0.65781595     11534.818    
   2996000   323.46152      1.498          0.013732866    0.013659986    0.013584365   -134.80456      1686.6368      1686.6368      1686.6368      4.7980492e+09  0.11835147    -10828605      -10828605       963.21318     -10827642      -135.53285     -134.81358     -134.06726      0.13259065     0.39271668     0.6566564      11536.956    
   2997000   323.47777      1.4985         0.013723211    0.01365008     0.013571717   -134.6986       1686.9744      1686.9744      1686.9744      4.8009309e+09  0.11828043    -10823092      -10823092       963.26157     -10822129      -135.43756     -134.71581     -133.94244      0.12811893     0.40202335     0.63401782     11373.416    
   2998000   323.48653      1.499          0.013712237    0.01364025     0.013560868   -134.59447      1687.312       1687.312       1687.312       4.8038138e+09  0.11820944    -10817582      -10817582       963.28766     -10816619      -135.32926     -134.6188      -133.83536      0.11363067     0.39994671     0.60874732     11521.378    
   2999000   323.49363      1.4995         0.013699593    0.013630257    0.013548712   -134.48001      1687.6496      1687.6496      1687.6496      4.8066978e+09  0.11813852    -10812074      -10812074       963.30878     -10811111      -135.20447     -134.52018     -133.7154       0.099189764    0.38592551     0.59485252     11443.238    
   3000000   323.50229      1.5            0.013687059    0.013621648    0.013536122   -134.36904      1687.9872      1687.9872      1687.9872      4.809583e+09   0.11806765    -10806569      -10806569       963.33457     -10805605      -135.08077     -134.43521     -133.59114      0.091184004    0.38198691     0.58947601     11187.646    
   3001000   323.49932      1.5005         0.013678113    0.013613895    0.013526505   -134.28247      1688.3248      1688.3248      1688.3248      4.8124693e+09  0.11799684    -10801065      -10801065       963.32573     -10800102      -134.99248     -134.3587      -133.49622      0.098315074    0.40015745     0.58769417     11696.434    
   3002000   323.47084      1.501          0.013673035    0.013605639    0.01352167    -134.22269      1688.6624      1688.6624      1688.6624      4.8153568e+09  0.11792608    -10795562      -10795562       963.24093     -10794599      -134.94237     -134.27721     -133.4485       0.12040849     0.42902859     0.58915212     11955.606    
   3003000   323.42309      1.5015         0.013670797    0.013597523    0.013519534   -134.18161      1689           1689           1689           4.8182454e+09  0.11785538    -10790059      -10790059       963.09873     -10789096      -134.92027     -134.19712     -133.42742      0.13426325     0.45436171     0.60396838     12072.639    
   3004000   323.3793       1.502          0.0136665      0.013587889    0.013515305   -134.12186      1689.3376      1689.3376      1689.3376      4.8211352e+09  0.11778474    -10784555      -10784555       962.96833     -10783592      -134.87787     -134.10204     -133.38569      0.12449097     0.47591337     0.628552       11975.386    
   3005000   323.36488      1.5025         0.013656284    0.013575408    0.01350561    -134.01531      1689.6752      1689.6752      1689.6752      4.8240262e+09  0.11771415    -10779053      -10779053       962.9254      -10778090      -134.77705     -133.97886     -133.29001      0.10755926     0.48904972     0.64919998     12015.13     
   3006000   323.38443      1.503          0.013642909    0.013562223    0.013490903   -133.87955      1690.0128      1690.0128      1690.0128      4.8269183e+09  0.11764362    -10773553      -10773553       962.9836      -10772590      -134.64505     -133.84873     -133.14486      0.10619705     0.49012481     0.63855807     12121.731    
   3007000   323.41738      1.5035         0.013629136    0.013551762    0.013475366   -133.74871      1690.3503      1690.3503      1690.3503      4.8298115e+09  0.11757315    -10768058      -10768058       963.08174     -10767095      -134.50911     -133.74549     -132.99152      0.12368601     0.48156346     0.60528577     11980.99     
   3008000   323.43796      1.504          0.013617282    0.013545865    0.013463802   -133.65227      1690.6879      1690.6879      1690.6879      4.8327059e+09  0.11750273    -10762565      -10762565       963.14301     -10761601      -134.39213     -133.6873      -132.87739      0.14558021     0.46610745     0.58164999     12025.736    
   3009000   323.44266      1.5045         0.013606199    0.013540965    0.013457416   -133.57868      1691.0255      1691.0255      1691.0255      4.8356015e+09  0.11743237    -10757073      -10757073       963.15702     -10756110      -134.28275     -133.63893     -132.81437      0.15526787     0.45139232     0.59097067     11960.666    
   3010000   323.45413      1.505          0.013594531    0.013532845    0.013452787   -133.49836      1691.3631      1691.3631      1691.3631      4.8384982e+09  0.11736207    -10751582      -10751582       963.19117     -10750618      -134.16759     -133.5588      -132.76868      0.15300792     0.44198565     0.61787723     11865.194    
   3011000   323.4825       1.5055         0.013584493    0.013522804    0.013445647   -133.40881      1691.7007      1691.7007      1691.7007      4.8413961e+09  0.11729182    -10746092      -10746092       963.27564     -10745129      -134.06852     -133.4597      -132.69822      0.1466041      0.42620622     0.6283849      11930.512    
   3012000   323.50461      1.506          0.013577596    0.013514042    0.013436904   -133.32854      1692.0383      1692.0383      1692.0383      4.8442951e+09  0.11722163    -10740604      -10740604       963.34149     -10739641      -134.00046     -133.37322     -132.61193      0.14227517     0.40122304     0.61085393     11866.652    
   3013000   323.50472      1.5065         0.013570677    0.0135049      0.013427025   -133.2432       1692.3759      1692.3759      1692.3759      4.8471953e+09  0.11715149    -10735117      -10735117       963.34183     -10734153      -133.93217     -133.283       -132.51444      0.14211969     0.38063268     0.58659643     11851.656    
   3014000   323.49948      1.507          0.013562648    0.013494685    0.013417558   -133.15204      1692.7135      1692.7135      1692.7135      4.8500967e+09  0.11708141    -10729631      -10729631       963.32623     -10728668      -133.85292     -133.18218     -132.421        0.13925864     0.37747722     0.5739352      11876.169    
   3015000   323.50028      1.5075         0.013552647    0.013484772    0.01340904    -133.05851      1693.0511      1693.0511      1693.0511      4.8529992e+09  0.11701138    -10724147      -10724147       963.32859     -10723184      -133.75423     -133.08435     -132.33693      0.12941611     0.38577155     0.56635238     11713.476    
   3016000   323.50241      1.508          0.013539804    0.013474115    0.013399899   -132.95113      1693.3887      1693.3887      1693.3887      4.8559029e+09  0.11694142    -10718665      -10718665       963.33493     -10717702      -133.62748     -132.97918     -132.24672      0.12283708     0.39035119     0.55092773     11774.566    
   3017000   323.49756      1.5085         0.013527163    0.013461943    0.013389243   -132.83444      1693.7263      1693.7263      1693.7263      4.8588077e+09  0.1168715     -10713186      -10713186       963.3205      -10712223      -133.50272     -132.85905     -132.14156      0.12506015     0.38583425     0.53646037     11654.788    
   3018000   323.48929      1.509          0.013516886    0.01344953     0.013377591   -132.72147      1694.0639      1694.0639      1694.0639      4.8617137e+09  0.11680164    -10707709      -10707709       963.29587     -10706746      -133.4013      -132.73654     -132.02656      0.12945002     0.38632247     0.53318683     11845.048    
   3019000   323.48218      1.5095         0.013508399    0.013438652    0.01336759    -132.62486      1694.4015      1694.4015      1694.4015      4.8646208e+09  0.11673184    -10702235      -10702235       963.27469     -10701272      -133.31753     -132.62918     -131.92785      0.12583283     0.40879401     0.55180744     11873.174    
   3020000   323.47516      1.51           0.013502658    0.013430023    0.013360862   -132.55545      1694.7391      1694.7391      1694.7391      4.8675291e+09  0.1166621     -10696762      -10696762       963.25379     -10695799      -133.26087     -132.54402     -131.86145      0.11350012     0.44594549     0.58053683     11786.887    
   3021000   323.47237      1.5105         0.013499072    0.013423268    0.013355591   -132.50409      1695.0767      1695.0767      1695.0767      4.8704386e+09  0.11659241    -10691289      -10691289       963.24549     -10690326      -133.22548     -132.47735     -131.80944      0.10786899     0.46362261     0.59650621     11913.63     
   3022000   323.47428      1.511          0.013494043    0.01341801     0.013347531   -132.44374      1695.4143      1695.4143      1695.4143      4.8733492e+09  0.11652277    -10685816      -10685816       963.25118     -10684853      -133.17585     -132.42546     -131.72989      0.12188971     0.44473552     0.59610194     11827.491    
   3023000   323.47506      1.5115         0.01348345     0.013412002    0.013336457   -132.35269      1695.7519      1695.7519      1695.7519      4.876261e+09   0.11645319    -10680344      -10680344       963.25348     -10679380      -133.0713      -132.36617     -131.6206       0.14741882     0.40770963     0.5944141      11868.34     
   3024000   323.49226      1.512          0.013468292    0.013403726    0.013324098   -132.23494      1696.0895      1696.0895      1696.0895      4.8791739e+09  0.11638367    -10674874      -10674874       963.30471     -10673911      -132.9217      -132.28449     -131.49863      0.16639707     0.38630341     0.59036098     11815.473    
   3025000   323.53597      1.5125         0.013454724    0.013393311    0.013315093   -132.12642      1696.4271      1696.4271      1696.4271      4.882088e+09   0.1163142     -10669407      -10669407       963.43486     -10668444      -132.7878      -132.1817      -131.40975      0.17075242     0.39309357     0.57588611     11860.454    
   3026000   323.58417      1.513          0.013447613    0.013383361    0.0133127     -132.06242      1696.7647      1696.7647      1696.7647      4.8850033e+09  0.11624478    -10663942      -10663942       963.5784      -10662979      -132.71762     -132.0835      -131.38614      0.1618