LAMMPS (23 Jun 2022 - Update 1)
OMP_NUM_THREADS environment is not set. Defaulting to 1 thread. (src/comm.cpp:98)
  using 1 OpenMP thread(s) per MPI task
###

# Read restart info
read_restart ${read_res}
read_restart ./trial7/2080/equpmf86.res
Reading restart file ...
  restart file = 23 Jun 2022, LAMMPS = 23 Jun 2022
  restoring atom style atomic from restart
  orthogonal box = (1641.0583 1641.0583 1641.0583) to (2358.9417 2358.9417 2358.9417)
  1 by 2 by 2 MPI processor grid
  restoring pair style table from restart
  1000 atoms
  read_restart CPU = 0.049 seconds

# Settings
pair_style table/pgn spline 10941
pair_coeff 1 1 N20e.txt DE_GNP 308 72.9   # 1.35 * r
pair_coeff 2 2 N100e.txt DE_GNP 473.9 111.78
WARNING: 20 of 10941 force values in table DE_GNP are inconsistent with -dE/dr.
WARNING:  Should only be flagged at inflection points (src/pair_table_pgn.cpp:478)
pair_coeff 1 2 mixed_potentiale.txt DE_GNP 391.2 92.95
WARNING: 1564 of 10941 force values in table DE_GNP are inconsistent with -dE/dr.
WARNING:  Should only be flagged at inflection points (src/pair_table_pgn.cpp:478)

# Neighbor list
neighbor 2.0 bin
neigh_modify delay 0 every 1 check no once yes

# Temperature
variable T equal ${Temp}
variable T equal 300

# Deformation
reset_timestep 0
variable tmp equal "lx"
variable L0 equal ${tmp}
variable L0 equal 717.88331423871
variable strain equal "(lx - v_L0)/v_L0"
variable stp equal "step"
variable tmpe equal "temp"
variable p1 equal "v_strain"
variable p2 equal "-pxx*1.01325/10000"
variable p3 equal "-pyy*1.01325/10000"
variable p4 equal "-pzz*1.01325/10000"
variable p5 equal "lx"
variable p6 equal "ly"
variable p7 equal "lz"
variable p8 equal "press"
variable p9 equal "epair"
variable p10 equal "etotal"

# Thermo
thermo_style custom step temp v_p1 v_p2 v_p3 v_p4 press lx ly lz vol density epair pe ke etotal pxx pyy pzz pxy pxz pyz spcpu
thermo ${ts_save}
thermo 1000

# Dump
# dump 1 all custom 2000 ./${N20}${N100}/tensile/trajectory/trajectory_${usic}_${trial}_*.tensile.custom id type x y z ix iy iz
# dump_modify 1 sort id
dump 2 all cfg 50000 ./trial${trial}/${N20}${N100}/tensile/trajectory/dumpten.tens_${usic}_${trial}_*.cfg mass type xs ys zs fx fy fz
dump 2 all cfg 50000 ./trial7/${N20}${N100}/tensile/trajectory/dumpten.tens_${usic}_${trial}_*.cfg mass type xs ys zs fx fy fz
dump 2 all cfg 50000 ./trial7/20${N100}/tensile/trajectory/dumpten.tens_${usic}_${trial}_*.cfg mass type xs ys zs fx fy fz
dump 2 all cfg 50000 ./trial7/2080/tensile/trajectory/dumpten.tens_${usic}_${trial}_*.cfg mass type xs ys zs fx fy fz
dump 2 all cfg 50000 ./trial7/2080/tensile/trajectory/dumpten.tens_1_${trial}_*.cfg mass type xs ys zs fx fy fz
dump 2 all cfg 50000 ./trial7/2080/tensile/trajectory/dumpten.tens_1_7_*.cfg mass type xs ys zs fx fy fz
dump_modify 2 element N20 N100

fix 1 all nvt temp ${T} ${T} 100
fix 1 all nvt temp 300 ${T} 100
fix 1 all nvt temp 300 300 100
fix 2 all deform 1 x erate ${strain_rate} y erate ${strain_rate} z erate ${strain_rate} units box
fix 2 all deform 1 x erate 5e-6 y erate ${strain_rate} z erate ${strain_rate} units box
fix 2 all deform 1 x erate 5e-6 y erate 5e-6 z erate ${strain_rate} units box
fix 2 all deform 1 x erate 5e-6 y erate 5e-6 z erate 5e-6 units box
fix             def1 all print ${ts_save} "${p1} ${p2} ${p3} ${p4}" file ./tensile/${trial}/tensile${N20}${N100}_${usic}_${trial}.txt screen no
fix             def1 all print 1000 "${p1} ${p2} ${p3} ${p4}" file ./tensile/${trial}/tensile${N20}${N100}_${usic}_${trial}.txt screen no
fix             def1 all print 1000 "${p1} ${p2} ${p3} ${p4}" file ./tensile/7/tensile${N20}${N100}_${usic}_${trial}.txt screen no
fix             def1 all print 1000 "${p1} ${p2} ${p3} ${p4}" file ./tensile/7/tensile20${N100}_${usic}_${trial}.txt screen no
fix             def1 all print 1000 "${p1} ${p2} ${p3} ${p4}" file ./tensile/7/tensile2080_${usic}_${trial}.txt screen no
fix             def1 all print 1000 "${p1} ${p2} ${p3} ${p4}" file ./tensile/7/tensile2080_1_${trial}.txt screen no
fix             def1 all print 1000 "${p1} ${p2} ${p3} ${p4}" file ./tensile/7/tensile2080_1_7.txt screen no

timestep       		${ts}
timestep       		0.1
run				${steps_tensile}
run				6000000
Generated 0 of 1 mixed pair_coeff terms from geometric mixing rule
Unused restart file global fix info:
  fix style: npt, fix ID: 5
Neighbor list info ...
  update every 1 steps, delay 0 steps, check no
  max neighbors/atom: 2000, page size: 100000
  master list distance cutoff = 113.78
  ghost atom cutoff = 113.78
  binsize = 56.89, bins = 13 13 13
  1 neighbor lists, perpetual/occasional/extra = 1 0 0
  (1) pair table/pgn, perpetual
      attributes: half, newton on
      pair build: half/bin/atomonly/newton
      stencil: half/bin/3d
      bin: standard
Per MPI rank memory allocation (min/avg/max) = 3.845 | 3.847 | 3.849 Mbytes
   Step          Temp           v_p1           v_p2           v_p3           v_p4          Press            Lx             Ly             Lz           Volume        Density         E_pair         PotEng         KinEng         TotEng          Pxx            Pyy            Pzz            Pxy            Pxz            Pyz           S/CPU     
         0   311.22532     -3.167279e-16   0.0060047069   0.010810918   -0.019574429    9.0757612      717.88331      717.88331      717.88331      3.699658e+08   1.7146021     -47885380      -47885380       926.77586     -47884454      -59.261849     -106.69546      193.1846       32.462802      46.957623      87.544666      0            
      1000   321.14563      0.0005         0.015961975    0.02070262    -0.0092003879  -90.350216      718.24226      718.24226      718.24226      3.7052102e+08  1.7120328     -47885126      -47885126       956.31683     -47884170      -157.53245     -204.31897      90.800769      30.884909      45.822426      86.452015      10877.901    
      2000   357.9937       0.001          0.025222683    0.029967129    0.00047610331 -183.12662      718.6012       718.6012       718.6012       3.7107681e+08  1.7094686     -47884223      -47884223       1066.0441     -47883157      -248.92852     -295.75257     -4.6987743      30.928824      45.606053      84.840694      13258.972    
      3000   397.97627      0.0015         0.03385718     0.038486126    0.0095078265  -269.26929      718.96014      718.96014      718.96014      3.7163314e+08  1.7069095     -47882704      -47882704       1185.1054     -47881519      -334.14439     -379.82854     -93.834952      32.096283      44.706832      83.252399      13218.753    
      4000   428.23856      0.002          0.042268081    0.046655712    0.018323513   -352.8162       719.31908      719.31908      719.31908      3.7219004e+08  1.7043555     -47880566      -47880566       1275.2213     -47879291      -417.15352     -460.45607     -180.83901      32.699508      43.331389      81.632587      13328.516    
      5000   444.2314       0.0025         0.050719939    0.054942896    0.027255533   -437.26743      719.67802      719.67802      719.67802      3.7274748e+08  1.7018066     -47877776      -47877776       1322.8453     -47876453      -500.56688     -542.24422     -268.9912       31.61999       42.561997      79.785959      13271.827    
      6000   447.66461      0.003          0.059311018    0.063409582    0.036207952   -522.83429      720.03696      720.03696      720.03696      3.7330549e+08  1.6992628     -47874314      -47874314       1333.0688     -47872981      -585.35424     -625.80392     -357.3447       29.601823      41.572116      78.207939      12957.096    
      7000   442.92802      0.0035         0.067894539    0.07183462     0.044961091   -607.58368      720.39591      720.39591      720.39591      3.7386405e+08  1.6967241     -47870173      -47870173       1318.964      -47868855      -670.067       -708.95258     -443.73147      28.498775      39.830784      76.858701      12997.109    
      8000   434.04983      0.004          0.076162015    0.080090157    0.053522551   -690.10518      720.75485      720.75485      720.75485      3.7442317e+08  1.6941904     -47865349      -47865349       1292.5263     -47864056      -751.66064     -790.42839     -528.22651      28.876695      38.572838      75.701597      12982.009    
      9000   423.90441      0.0045         0.08406114     0.088107856    0.061968796   -770.25345      721.11379      721.11379      721.11379      3.7498285e+08  1.6916617     -47859847      -47859847       1262.3149     -47858584      -829.61895     -869.55694     -611.58447      29.254193      38.16012       74.740683      12924        
     10000   414.20913      0.005          0.091815676    0.095875245    0.070289528   -848.68969      721.47273      721.47273      721.47273      3.7554308e+08  1.6891381     -47853671      -47853671       1233.4441     -47852438      -906.15027     -946.2151      -693.7037       28.555628      37.442518      73.633726      13488.749    
     11000   405.752        0.0055         0.099607981    0.10354997     0.078420105   -926.31977      721.83167      721.83167      721.83167      3.7610387e+08  1.6866195     -47846833      -47846833       1208.2602     -47845625      -983.05434     -1021.9587     -773.94626      27.748098      36.0267        72.041718      15543.037    
     12000   398.59623      0.006          0.1073963      0.11120708     0.086407663   -1003.4083      722.19061      722.19061      722.19061      3.7666522e+08  1.6841059     -47839346      -47839346       1186.9515     -47838159      -1059.9191     -1097.5285     -852.77733      27.080242      34.692838      70.240843      15443.018    
     13000   392.3645       0.0065         0.11494158     0.11870816     0.094306327   -1078.8916      722.54956      722.54956      722.54956      3.7722713e+08  1.6815973     -47831229      -47831229       1168.3945     -47830061      -1134.3852     -1171.5584     -930.73108      26.272573      34.003971      68.43294       15541.568    
     14000   387.09018      0.007          0.12216663     0.1258023      0.1019681     -1151.2034      722.9085       722.9085       722.9085       3.7778959e+08  1.6790937     -47822505      -47822505       1152.6885     -47821353      -1205.6909     -1241.5722     -1006.3469      25.39315       33.138481      67.132667      15522.685    
     15000   382.90449      0.0075         0.12919359     0.13266605     0.10936034    -1221.2188      723.26744      723.26744      723.26744      3.7835262e+08  1.6765951     -47813183      -47813183       1140.2242     -47812042      -1275.0416     -1309.3121     -1079.3026      25.135048      31.823712      66.537135      15555.114    
     16000   379.57779      0.008          0.13613588     0.13946731     0.11661384    -1290.2937      723.62638      723.62638      723.62638      3.789162e+08   1.6741014     -47803255      -47803255       1130.3178     -47802125      -1343.5567     -1376.4353     -1150.8892      25.468379      30.783696      66.125775      15560.52     
     17000   377.12251      0.0085         0.14292495     0.14616087     0.12379045    -1358.2574      723.98532      723.98532      723.98532      3.7948034e+08  1.6716126     -47792739      -47792739       1123.0064     -47791616      -1410.5596     -1442.4957     -1221.7168      25.227753      30.038607      65.116554      15485.202    
     18000   375.41325      0.009          0.14957606     0.15275824     0.13087622    -1425.1518      724.34426      724.34426      724.34426      3.8004505e+08  1.6691288     -47781657      -47781657       1117.9165     -47780539      -1476.2009     -1507.6066     -1291.6479      23.77991       29.449473      63.379429      15556.076    
     19000   374.218        0.0095         0.1561973      0.15928528     0.13781464    -1491.2319      724.70321      724.70321      724.70321      3.8061031e+08  1.6666499     -47770022      -47770022       1114.3573     -47768907      -1541.5475     -1572.0235     -1360.1248      22.12729       29.259666      61.809562      15505.94     
     20000   373.51454      0.01           0.16271496     0.16574475     0.14451188    -1555.9556      725.06215      725.06215      725.06215      3.8117613e+08  1.6641759     -47757853      -47757853       1112.2625     -47756740      -1605.8718     -1635.7735     -1426.2214      21.709913      28.776249      60.612973      15543.077    
     21000   373.37586      0.0105         0.16901956     0.17194894     0.15105386    -1618.6277      725.42109      725.42109      725.42109      3.8174252e+08  1.6617068     -47745152      -47745152       1111.8495     -47744040      -1668.0934     -1697.0041     -1490.7857      22.091174      27.533499      59.410317      15538.073    
     22000   373.80182      0.011          0.17510059     0.17776449     0.15752783    -1679.0621      725.78003      725.78003      725.78003      3.8230946e+08  1.6592426     -47731920      -47731920       1113.118      -47730806      -1728.1085     -1754.3991     -1554.6788      22.703471      26.41324       57.964563      15553.062    
     23000   374.8374       0.0115         0.18100442     0.18343787     0.16387497    -1738.0286      726.13897      726.13897      726.13897      3.8287697e+08  1.6567832     -47718171      -47718171       1116.2018     -47717055      -1786.3747     -1810.391      -1617.3202      22.96088       25.525303      56.584495      15587.616    
     24000   375.95744      0.012          0.18679006     0.1892982      0.1700816     -1796.7591      726.49791      726.49791      726.49791      3.8344503e+08  1.6543287     -47703925      -47703925       1119.5371     -47702806      -1843.4746     -1868.228      -1678.5749      21.754948      24.697569      55.391913      15503.335    
     25000   376.93379      0.0125         0.1923989      0.19514011     0.17611009    -1854.2613      726.85686      726.85686      726.85686      3.8401366e+08  1.6518791     -47689193      -47689193       1122.4445     -47688071      -1898.8295     -1925.8831     -1738.0714      19.923181      24.431918      54.507665      15536.541    
     26000   378.36814      0.013          0.19783313     0.20067115     0.18191741    -1909.4389      727.2158       727.2158       727.2158       3.8458285e+08  1.6494343     -47673993      -47673993       1126.7157     -47672867      -1952.4612     -1980.4703     -1795.3852      18.997241      23.939723      53.913308      15520.089    
     27000   380.36242      0.0135         0.20324047     0.20595816     0.18754518    -1963.1345      727.57474      727.57474      727.57474      3.851526e+08   1.6469943     -47658339      -47658339       1132.6543     -47657206      -2005.8275     -2032.649      -1850.927       19.129107      23.070888      53.572727      15546.737    
     28000   382.1666       0.014          0.20864228     0.21114652     0.19312403    -2016.3265      727.93368      727.93368      727.93368      3.8572292e+08  1.6445591     -47642224      -47642224       1138.0269     -47641086      -2059.1392     -2083.8542     -1905.986       19.611836      22.838385      52.768966      15544.446    
     29000   383.68462      0.0145         0.2137401      0.21617461     0.19855189    -2067.4943      728.29262      728.29262      728.29262      3.8629379e+08  1.6421287     -47625658      -47625658       1142.5473     -47624515      -2109.4507     -2133.4775     -1959.5548      19.128852      23.263413      51.211571      15558.223    
     30000   385.69304      0.015          0.21858148     0.22102677     0.20377858    -2116.5781      728.65156      728.65156      728.65156      3.8686523e+08  1.6397031     -47608665      -47608665       1148.528      -47607516      -2157.2315     -2181.3646     -2011.1382      17.722428      22.588426      49.647022      15553.342    
     31000   388.15302      0.0155         0.22350249     0.22579455     0.2090262     -2165.7151      729.01051      729.01051      729.01051      3.8743724e+08  1.6372823     -47591257      -47591257       1155.8534     -47590101      -2205.7981     -2228.4189     -2062.9282      16.556523      21.099716      48.913315      15555.802    
     32000   390.1746       0.016          0.22844494     0.2305736      0.21428306    -2214.99        729.36945      729.36945      729.36945      3.8800981e+08  1.6348662     -47573431      -47573431       1161.8733     -47572269      -2254.5763     -2275.5845     -2114.8093      16.030987      20.810709      48.141524      15545.311    
     33000   391.91156      0.0165         0.23306531     0.23513567     0.21927924    -2261.6341      729.72839      729.72839      729.72839      3.8858294e+08  1.6324549     -47555198      -47555198       1167.0457     -47554031      -2300.1757     -2320.6086     -2164.1178      15.941232      20.913224      47.069225      15548.058    
     34000   393.97888      0.017          0.23734334     0.23931277     0.22407265    -2305.2184      730.08733      730.08733      730.08733      3.8915663e+08  1.6300484     -47536583      -47536583       1173.2018     -47535410      -2342.3966     -2361.8334     -2211.4251      16.230648      20.572479      45.556368      15547.488    
     35000   396.35877      0.0175         0.2414854      0.24339945     0.22871868    -2347.5731      730.44627      730.44627      730.44627      3.8973089e+08  1.6276465     -47517593      -47517593       1180.2887     -47516412      -2383.2756     -2402.1658     -2257.2778      16.424384      19.945988      43.902563      15544.965    
     36000   398.56268      0.018          0.24561291     0.24766537     0.23310993    -2389.6314      730.80521      730.80521      730.80521      3.9030572e+08  1.6252494     -47498228      -47498228       1186.8516     -47497041      -2424.011      -2444.2671     -2300.6162      16.08039       18.945801      42.709682      15527.252    
     37000   400.43295      0.0185         0.24988067     0.25194353     0.23732484    -2431.6112      731.16416      731.16416      731.16416      3.9088111e+08  1.622857      -47478494      -47478494       1192.4209     -47477302      -2466.1305     -2486.4893     -2342.214       15.483414      18.170035      41.790747      15551.943    
     38000   402.06723      0.019          0.25409654     0.25595557     0.24171496    -2473.1214      731.5231       731.5231       731.5231       3.9145706e+08  1.6204693     -47458404      -47458404       1197.2876     -47457207      -2507.7379     -2526.0851     -2385.5412      14.619497      17.716218      41.083536      15538.544    
     39000   403.99633      0.0195         0.25802046     0.25969271     0.24616016    -2512.9479      731.88204      731.88204      731.88204      3.9203358e+08  1.6180862     -47437969      -47437969       1203.0321     -47436766      -2546.4639     -2562.9678     -2429.4119      13.603281      17.452941      40.393291      15553.974    
     40000   406.29455      0.02           0.26177441     0.26336986     0.25034642    -2551.166       732.24098      732.24098      732.24098      3.9261066e+08  1.6157079     -47417198      -47417198       1209.8758     -47415988      -2583.5125     -2599.2584     -2470.7271      12.868713      17.13044       39.763286      15544.898    
     41000   408.68052      0.0205         0.26534137     0.26701842     0.25433035    -2588.0093      732.59992      732.59992      732.59992      3.9318832e+08  1.6133341     -47396098      -47396098       1216.9808     -47394881      -2618.7157     -2635.2669     -2510.0454      12.876238      16.222607      38.549744      15502.947    
     42000   411.01495      0.021          0.26869607     0.27051479     0.2581378     -2623.0732      732.95886      732.95886      732.95886      3.9376653e+08  1.6109651     -47374680      -47374680       1223.9323     -47373456      -2651.824      -2669.7734     -2547.622       13.391658      14.799898      36.554083      15581.806    
     43000   413.03041      0.0215         0.27211072     0.27385595     0.26173421    -2657.1293      733.31781      733.31781      733.31781      3.9434532e+08  1.6086006     -47352957      -47352957       1229.934      -47351727      -2685.524      -2702.7481     -2583.1158      14.059632      13.727069      34.692063      15584.414    
     44000   414.22567      0.022          0.27564568     0.27705482     0.2652856     -2690.965       733.67675      733.67675      733.67675      3.9492467e+08  1.6062408     -47330928      -47330928       1233.4933     -47329694      -2720.4114     -2734.3185     -2618.1653      13.700436      12.736576      33.810073      15544.014    
     45000   414.92359      0.0225         0.27902276     0.28014206     0.26891941    -2724.1853      734.03569      734.03569      734.03569      3.9550459e+08  1.6038856     -47308596      -47308596       1235.5716     -47307360      -2753.7405     -2764.7872     -2654.0282      12.620588      12.256853      33.680576      15522.155    
     46000   416.11379      0.023          0.28216415     0.28318473     0.27248431    -2756.2569      734.39463      734.39463      734.39463      3.9608508e+08  1.6015351     -47285975      -47285975       1239.1158     -47284736      -2784.7437     -2794.816      -2689.211       12.370295      12.245829      33.06568       15545.933    
     47000   417.90023      0.0235         0.28518324     0.28623504     0.27580201    -2787.1381      734.75357      734.75357      734.75357      3.9666613e+08  1.5991891     -47263078      -47263078       1244.4355     -47261834      -2814.5398     -2824.9202     -2721.9542      12.309622      11.561014      31.888326      15532.617    
     48000   419.77611      0.024          0.28804253     0.28912042     0.27891151    -2816.266       735.11251      735.11251      735.11251      3.9724775e+08  1.5968476     -47239916      -47239916       1250.0216     -47238666      -2842.7587     -2853.3967     -2752.6426      12.450863      10.800714      31.450141      15549.67     
     49000   421.3002       0.0245         0.29079402     0.29185526     0.28188729    -2844.1042      735.47146      735.47146      735.47146      3.9782994e+08  1.5945108     -47216494      -47216494       1254.5601     -47215240      -2869.9139     -2880.3874     -2782.0112      13.153247      10.451879      31.236716      15544.826    
     50000   422.29467      0.025          0.29346085     0.29451299     0.2848235     -2871.28        735.8304       735.8304       735.8304       3.984127e+08   1.5921785     -47192814      -47192814       1257.5214     -47191557      -2896.2334     -2906.6172     -2810.9894      13.286015      10.357797      29.816029      14952.133    
     51000   423.26651      0.0255         0.29605989     0.29692084     0.28770615    -2897.2345      736.18934      736.18934      736.18934      3.9899603e+08  1.5898508     -47168891      -47168891       1260.4154     -47167631      -2921.8839     -2930.3808     -2839.4389      12.627115      10.602447      28.1118        15517.432    
     52000   424.43735      0.026          0.29855692     0.29916526     0.2904294     -2921.7915      736.54828      736.54828      736.54828      3.9957992e+08  1.5875275     -47144743      -47144743       1263.902      -47143480      -2946.5277     -2952.5316     -2866.3153      11.637285      10.558607      26.712412      15532.833    
     53000   425.479        0.0265         0.30091804     0.30139346     0.29307812    -2945.6028      736.90722      736.90722      736.90722      4.0016439e+08  1.5852089     -47120369      -47120369       1267.0038     -47119102      -2969.8302     -2974.5222     -2892.4562      11.151874      9.1724444      25.625922      15522.025    
     54000   426.6721       0.027          0.30317356     0.303602       0.29569459    -2968.896       737.26616      737.26616      737.26616      4.0074943e+08  1.5828947     -47095777      -47095777       1270.5567     -47094506      -2992.0904     -2996.3188     -2918.2787      11.260194      7.5763282      25.173531      15019.692    
     55000   428.06456      0.0275         0.30538587     0.30585803     0.29825292    -2992.0119      737.62511      737.62511      737.62511      4.0133503e+08  1.580585      -47070972      -47070972       1274.7032     -47069697      -3013.9242     -3018.5841     -2943.5275      10.978894      7.0964903      25.079896      15505.69     
     56000   429.21773      0.028          0.30761754     0.30802606     0.30071921    -3014.5993      737.98405      737.98405      737.98405      4.0192121e+08  1.5782798     -47045950      -47045950       1278.1371     -47044672      -3035.9491     -3039.9809     -2967.8679      10.6132        6.7177226      24.442779      15530.977    
     57000   430.0956       0.0285         0.30983551     0.30991937     0.30304731    -3035.7832      738.34299      738.34299      738.34299      4.0250795e+08  1.5759791     -47020719      -47020719       1280.7513     -47019439      -3057.8388     -3058.6664     -2990.8444      10.834311      5.8100153      23.650909      15528.36     
     58000   430.79647      0.029          0.31186513     0.31161393     0.30524491    -3055.2643      738.70193      738.70193      738.70193      4.0309527e+08  1.5736829     -46995296      -46995296       1282.8383     -46994013      -3077.8696     -3075.3904     -3012.533       11.314574      4.9775093      23.273683      15534.56     
     59000   431.46117      0.0295         0.31358815     0.31338531     0.30720994    -3073.2244      739.06087      739.06087      739.06087      4.0368316e+08  1.5713911     -46969692      -46969692       1284.8177     -46968407      -3094.8744     -3092.8725     -3031.9263      11.272814      4.2656343      22.300376      15540.171    
     60000   432.129        0.03           0.31508796     0.31519397     0.30905081    -3090.1645      739.41981      739.41981      739.41981      4.0427162e+08  1.5691038     -46943920      -46943920       1286.8064     -46942633      -3109.6764     -3110.7226     -3050.0943      10.401977      3.3020432      20.58835       15557.084    
     61000   432.93087      0.0305         0.31661357     0.31669642     0.31088348    -3106.155       739.77876      739.77876      739.77876      4.0486065e+08  1.5668209     -46917988      -46917988       1289.1942     -46916699      -3124.733      -3125.5506     -3068.1814      9.7690288      1.8620867      18.93455       15512.913    
     62000   433.62312      0.031          0.31834462     0.31792439     0.31267242    -3121.7746      740.1377       740.1377       740.1377       4.0545025e+08  1.5645425     -46891902      -46891902       1291.2556     -46890610      -3141.8172     -3137.6698     -3085.8368      9.3461586      0.42453709     17.788206      15527.793    
     63000   433.86016      0.0315         0.32005895     0.31914012     0.31427425    -3136.6834      740.49664      740.49664      740.49664      4.0604043e+08  1.5622684     -46865655      -46865655       1291.9615     -46864363      -3158.7363     -3149.6681     -3101.6457      8.9047579     -0.57718129     16.698699      15547.478    
     64000   433.9202       0.032          0.32149123     0.32040735     0.31579935    -3150.5812      740.85558      740.85558      740.85558      4.0663117e+08  1.5599988     -46839256      -46839256       1292.1403     -46837964      -3172.8718     -3162.1747     -3116.6973      8.8712896     -1.0267347      16.230901      15490.298    
     65000   434.16612      0.0325         0.32256903     0.32163728     0.317358      -3163.3006      741.21452      741.21452      741.21452      4.0722249e+08  1.5577335     -46812728      -46812728       1292.8726     -46811435      -3183.5088     -3174.3132     -3132.0799      9.2710969     -1.7988776      16.778808      15527.94     
     66000   434.80908      0.033          0.32346887     0.32263152     0.31877384    -3174.1894      741.57346      741.57346      741.57346      4.0781439e+08  1.5554727     -46786078      -46786078       1294.7872     -46784783      -3192.3896     -3184.1255     -3146.0532      9.2089853     -2.6893028      17.123625      15539.231    
     67000   435.81952      0.0335         0.32446811     0.32347875     0.32013944    -3184.7563      741.93241      741.93241      741.93241      4.0840685e+08  1.5532162     -46759313      -46759313       1297.7961     -46758015      -3202.2513     -3192.487      -3159.5307      8.2799899     -2.5762417      15.992184      15526.065    
     68000   436.64043      0.034          0.32560134     0.32432922     0.32148066    -3195.6945      742.29135      742.29135      742.29135      4.0899989e+08  1.5509641     -46732434      -46732434       1300.2406     -46731134      -3213.4354     -3200.8805     -3172.7675      7.2414004     -2.4941299      13.880664      15528.708    
     69000   436.92539      0.0345         0.32665548     0.32512076     0.32256095    -3205.3202      742.65029      742.65029      742.65029      4.0959351e+08  1.5487163     -46705443      -46705443       1301.0892     -46704142      -3223.8389     -3208.6925     -3183.4291      6.7243775     -3.648498       12.483703      15534.706    
     70000   436.77432      0.035          0.32752593     0.32577111     0.32340023    -3213.0842      743.00923      743.00923      743.00923      4.1018769e+08  1.5464729     -46678355      -46678355       1300.6393     -46677054      -3232.4296     -3215.1109     -3191.7121      6.3296313     -5.3109304      11.850812      15527.589    
     71000   436.39768      0.0355         0.32826778     0.32633193     0.32420773    -3220.0261      743.36817      743.36817      743.36817      4.1078246e+08  1.5442338     -46651181      -46651181       1299.5178     -46649881      -3239.7511     -3220.6458     -3199.6815      6.340295      -6.3749166      11.402703      15545.333    
     72000   436.18958      0.036          0.32881924     0.32684041     0.32509344    -3226.4268      743.72711      743.72711      743.72711      4.1137779e+08  1.541999      -46623922      -46623922       1298.8981     -46622623      -3245.1936     -3225.664      -3208.4228      6.5218096     -6.5281293      11.101253      15460.259    
     73000   436.25122      0.0365         0.32919892     0.32723244     0.32603201    -3232.0532      744.08606      744.08606      744.08606      4.119737e+08   1.5397685     -46596579      -46596579       1299.0816     -46595279      -3248.9408     -3229.5331     -3217.6857      6.4514938     -6.492866       11.083933      15518.064    
     74000   436.52402      0.037          0.3295597      0.32751884     0.32682892    -3236.8039      744.445        744.445        744.445        4.1257019e+08  1.5375423     -46569159      -46569159       1299.894      -46567859      -3252.5014     -3232.3596     -3225.5506      5.8281168     -7.0701801      10.701037      15496.666    
     75000   436.64848      0.0375         0.32994571     0.32777184     0.32738471    -3240.7345      744.80394      744.80394      744.80394      4.1316725e+08  1.5353204     -46541680      -46541680       1300.2646     -46540379      -3256.311      -3234.8566     -3231.0359      4.8218227     -8.0344516      9.0979845      15479.968    
     76000   436.7269       0.038          0.33033245     0.32788842     0.32776564    -3243.6434      745.16288      745.16288      745.16288      4.1376489e+08  1.5331028     -46514157      -46514157       1300.4981     -46512857      -3260.1278     -3236.0071     -3234.7954      3.7810408     -9.433901       7.4083346      15521.451    
     77000   436.71201      0.0385         0.33071456     0.32789147     0.32817329    -3246.2516      745.52182      745.52182      745.52182      4.1436311e+08  1.5308895     -46486593      -46486593       1300.4538     -46485292      -3263.8989     -3236.0372     -3238.8185      3.2917977     -10.76678       6.3829254      15546.788    
     78000   436.25698      0.039          0.3309113      0.32787522     0.32859765    -3248.2414      745.88076      745.88076      745.88076      4.149619e+08   1.5286804     -46458977      -46458977       1299.0988     -46457678      -3265.8406     -3235.8769     -3243.0067      2.8890057     -11.601582      5.5228527      15529.03     
     79000   435.74475      0.0395         0.33082615     0.3277582      0.32886608    -3248.4593      746.23971      746.23971      746.23971      4.1556126e+08  1.5264756     -46431321      -46431321       1297.5734     -46430023      -3265.0002     -3234.7219     -3245.6559      2.5629549     -11.935163      5.0023513      15528.124    
     80000   435.54608      0.04           0.33068429     0.32763117     0.32895402    -3247.8641      746.59865      746.59865      746.59865      4.1616121e+08  1.524275      -46403638      -46403638       1296.9818     -46402341      -3263.6002     -3233.4683     -3246.5238      2.7444725     -12.231657      5.0299655      15536.928    
     81000   435.4184       0.0405         0.33056384     0.32751046     0.32898969    -3247.1881      746.95759      746.95759      746.95759      4.1676173e+08  1.5220787     -46375933      -46375933       1296.6016     -46374637      -3262.4115     -3232.277      -3246.8758      2.4057481     -12.791389      5.3110083      15535.714    
     82000   434.99561      0.041          0.33037341     0.32724543     0.32902775    -3245.8149      747.31653      747.31653      747.31653      4.1736283e+08  1.5198865     -46348211      -46348211       1295.3426     -46346915      -3260.532      -3229.6613     -3247.2514      1.2789425     -13.338888      5.5313878      15563.039    
     83000   434.30416      0.0415         0.3299926      0.32676524     0.32898944    -3242.8564      747.67547      747.67547      747.67547      4.179645e+08   1.5176986     -46320480      -46320480       1293.2836     -46319187      -3256.7737     -3224.9222     -3246.8733     -0.23236171    -14.266216      5.3141681      15480.473    
     84000   433.62048      0.042          0.32943759     0.32614183     0.32882583    -3238.4415      748.03441      748.03441      748.03441      4.1856676e+08  1.5155148     -46292756      -46292756       1291.2478     -46291465      -3251.2962     -3218.7696     -3245.2586     -1.3124579     -15.720698      4.4980588      15509.404    
     85000   433.04579      0.0425         0.32883026     0.32547219     0.328546      -3233.32        748.39336      748.39336      748.39336      4.1916959e+08  1.5133353     -46265046      -46265046       1289.5364     -46263757      -3245.3024     -3212.1608     -3242.497      -1.2808746     -17.243765      3.9576477      15543.346    
     86000   432.24327      0.043          0.3282931      0.32493935     0.32822624    -3228.7481      748.7523       748.7523       748.7523       4.19773e+08    1.5111599     -46237346      -46237346       1287.1466     -46236059      -3240.001      -3206.9021     -3239.3411     -0.92160076    -18.275126      3.4673846      15497.501    
     87000   431.17113      0.0435         0.32767903     0.32439166     0.327766      -3223.4121      749.11124      749.11124      749.11124      4.2037699e+08  1.5089887     -46209660      -46209660       1283.954      -46208376      -3233.9406     -3201.4967     -3234.7989     -1.0587534     -18.069788      3.0499365      15526.008    
     88000   430.30169      0.044          0.32688089     0.3236003      0.32706585    -3215.8797      749.47018      749.47018      749.47018      4.2098156e+08  1.5068217     -46182014      -46182014       1281.365      -46180733      -3226.0635     -3193.6867     -3227.889      -2.8958289     -17.854991      2.2632487      15510.76     
     89000   429.61166      0.0445         0.32599338     0.32259532     0.32628682    -3207.0911      749.82912      749.82912      749.82912      4.2158671e+08  1.5046588     -46154415      -46154415       1279.3102     -46153135      -3217.3045     -3183.7683     -3220.2005     -5.3749522     -18.70473       0.70082115     15513.024    
     90000   428.74498      0.045          0.32506382     0.32154051     0.32563114    -3198.406       750.18806      750.18806      750.18806      4.2219244e+08  1.5025        -46126855      -46126855       1276.7293     -46125578      -3208.1305     -3173.3581     -3213.7295     -6.3287144     -20.109858     -0.51423746     15541.957    
     91000   427.80356      0.0455         0.32413841     0.32059809     0.32501674    -3190.2401      750.54701      750.54701      750.54701      4.2279874e+08  1.5003454     -46099330      -46099330       1273.9259     -46098056      -3198.9973     -3164.0572     -3207.6658     -5.5717647     -21.368742      0.29535626     15444.341    
     92000   426.71658      0.046          0.32313946     0.31973406     0.32427413    -3181.6684      750.90595      750.90595      750.90595      4.2340563e+08  1.4981948     -46071849      -46071849       1270.6891     -46070579      -3189.1386     -3155.5298     -3200.3369     -4.4263292     -21.310603      1.7374132      15511.195    
     93000   425.72357      0.0465         0.32195479     0.31865358     0.32342019    -3171.4074      751.26489      751.26489      751.26489      4.240131e+08   1.4960484     -46044431      -46044431       1267.7321     -46043163      -3177.4467     -3144.8663     -3191.9091     -4.1672917     -20.972227      1.3033633      15538.626    
     94000   424.84486      0.047          0.32070765     0.317366       0.32247828    -3159.9702      751.62383      751.62383      751.62383      4.2462115e+08  1.4939061     -46017090      -46017090       1265.1154     -46015825      -3165.1384     -3132.1589     -3182.6132     -4.4021516     -21.621101     -1.1560343      15527.445    
     95000   424.02159      0.0475         0.31931445     0.3159667      0.32130199    -3146.9139      751.98277      751.98277      751.98277      4.2522978e+08  1.4917679     -45989828      -45989828       1262.6639     -45988566      -3151.3886     -3118.3489     -3171.0041     -5.2642497     -23.040902     -2.885358       15532.194    
     96000   423.20867      0.048          0.31790592     0.31460212     0.32001428    -3133.5548      752.34171      752.34171      752.34171      4.2583899e+08  1.4896337     -45962645      -45962645       1260.2432     -45961385      -3137.4875     -3104.8815     -3158.2954     -7.0164007     -24.220899     -2.5742877      15507.631    
     97000   422.13002      0.0485         0.31655427     0.31330794     0.31868512    -3120.4781      752.70065      752.70065      752.70065      4.2644879e+08  1.4875037     -45935551      -45935551       1257.0311     -45934294      -3124.1477     -3092.1089     -3145.1776     -8.2136287     -24.297725     -2.3406407      15541.912    
     98000   420.79355      0.049          0.31514166     0.31188644     0.31733405    -3106.7099      753.0596       753.0596       753.0596       4.2705916e+08  1.4853777     -45908551      -45908551       1253.0513     -45907298      -3110.2064     -3078.0798     -3131.8435     -8.3679354     -24.118261     -2.7501752      15526.424    
     99000   419.40027      0.0495         0.31348545     0.31024135     0.31591841    -3091.1924      753.41854      753.41854      753.41854      4.2767012e+08  1.4832557     -45881655      -45881655       1248.9024     -45880406      -3093.8609     -3061.8441     -3117.8723     -7.8889042     -24.010357     -3.185799       15514.784    
    100000   417.93539      0.05           0.31166528     0.30857656     0.31436011    -3074.6014      753.77748      753.77748      753.77748      4.2828166e+08  1.4811378     -45854872      -45854872       1244.5402     -45853628      -3075.8971     -3045.4139     -3102.4931     -6.5956166     -23.68687      -3.6862996      14991.57     
    101000   416.30226      0.0505         0.30989769     0.30703081     0.31274078    -3058.3741      754.13642      754.13642      754.13642      4.2889378e+08  1.4790239     -45828197      -45828197       1239.677      -45826957      -3058.4524     -3030.1585     -3086.5116     -4.8500983     -23.425187     -4.1368031      15479.841    
    102000   414.57546      0.051          0.30821936     0.30551406     0.31119544    -3042.7794      754.49536      754.49536      754.49536      4.2950649e+08  1.476914      -45801624      -45801624       1234.5349     -45800390      -3041.8885     -3015.1894     -3071.2602     -4.5723134     -23.597108     -4.4907026      15527.289    
    103000   413.00058      0.0515         0.30644912     0.30374153     0.30957602    -3025.7971      754.8543       754.8543       754.8543       4.3011977e+08  1.4748081     -45775174      -45775174       1229.8452     -45773944      -3024.4177     -2997.6959     -3055.2778     -5.9684871     -23.556652     -4.9482215      15517.882    
    104000   411.85807      0.052          0.30459022     0.30169543     0.30778902    -3007.0719      755.21325      755.21325      755.21325      4.3073365e+08  1.4727063     -45748859      -45748859       1226.443      -45747633      -3006.0718     -2977.5024     -3037.6415     -7.6327094     -22.903488     -5.9648609      15528.697    
    105000   410.83528      0.0525         0.30266363     0.29962616     0.30596543    -2987.9273      755.57219      755.57219      755.57219      4.313481e+08   1.4706084     -45722687      -45722687       1223.3973     -45721464      -2987.0578     -2957.0803     -3019.644      -9.0058578     -21.984374     -7.1144735      15528.818    
    106000   409.55046      0.053          0.30071891     0.29777815     0.30416522    -2969.528       755.93113      755.93113      755.93113      4.3196314e+08  1.4685145     -45696650      -45696650       1219.5713     -45695431      -2967.8649     -2938.8419     -3001.8773     -9.4407474     -21.436818     -7.6095484      15481.188    
    107000   407.92354      0.0535         0.29878198     0.29616554     0.30239678    -2952.0332      756.29007      756.29007      756.29007      4.3257877e+08  1.4664246     -45670743      -45670743       1214.7266     -45669529      -2948.7489     -2922.9266     -2984.4242     -8.2281788     -21.331005     -7.3082621      15503.047    
    108000   406.40572      0.054          0.29681378     0.29441881     0.30051803    -2933.6315      756.64901      756.64901      756.64901      4.3319497e+08  1.4643386     -45644968      -45644968       1210.2068     -45643758      -2929.3243     -2905.6878     -2965.8823     -6.8964487     -21.75289      -7.2870365      15504.067    
    109000   405.07177      0.0545         0.29480248     0.29239579     0.29853763    -2913.8445      757.00795      757.00795      757.00795      4.3381177e+08  1.4622566     -45619337      -45619337       1206.2346     -45618131      -2909.4743     -2885.722      -2946.3373     -7.3022555     -22.231649     -8.629257       15481.511    
    110000   403.70969      0.055          0.29268828     0.29019942     0.29640866    -2892.6601      757.3669       757.3669       757.3669       4.3442915e+08  1.4601786     -45593863      -45593863       1202.1785     -45592661      -2888.6087     -2864.0456     -2925.3261     -8.5560743     -21.905234     -10.529178      15499.563    
    111000   402.01463      0.0555         0.29049958     0.28804871     0.29421532    -2871.169       757.72584      757.72584      757.72584      4.3504711e+08  1.4581045     -45568549      -45568549       1197.1309     -45567352      -2867.008      -2842.8197     -2903.6795     -9.2782609     -21.048272     -11.301789      15515.955    
    112000   400.21581      0.056          0.28825943     0.28604952     0.29210726    -2850.2877      758.08478      758.08478      758.08478      4.3566566e+08  1.4560343     -45543391      -45543391       1191.7743     -45542200      -2844.8994     -2823.0893     -2882.8745     -9.251967      -20.846775     -10.44001       15520.196    
    113000   398.71678      0.0565         0.2860392      0.28406919     0.29000657    -2829.5582      758.44372      758.44372      758.44372      4.362848e+08   1.453968      -45518396      -45518396       1187.3105     -45517209      -2822.9874     -2803.5449     -2862.1423     -9.2453444     -20.58409      -8.9375256      15530.343    
    114000   397.23282      0.057          0.28398515     0.28205507     0.28788094    -2809.1822      758.80266      758.80266      758.80266      4.3690452e+08  1.4519056     -45493561      -45493561       1182.8915     -45492378      -2802.7155     -2783.6671     -2841.164      -9.3226204     -19.55576      -8.5721149      15480.436    
    115000   395.27346      0.0575         0.28201241     0.27999684     0.28575195    -2788.9175      759.1616       759.1616       759.1616       4.3752483e+08  1.4498472     -45468878      -45468878       1177.0569     -45467701      -2783.2461     -2763.3539     -2820.1525     -9.3114925     -18.799562     -9.6058032      15524.178    
    116000   393.47233      0.058          0.27995405     0.27778489     0.28363718    -2767.9122      759.52055      759.52055      759.52055      4.3814573e+08  1.4477926     -45444349      -45444349       1171.6934     -45443177      -2762.9316     -2741.5237     -2799.2813     -9.4250515     -19.276092     -11.690135      15527.477    
    117000   392.21396      0.0585         0.2777947      0.27553866     0.28157387    -2746.6312      759.87949      759.87949      759.87949      4.3876721e+08  1.4457419     -45419987      -45419987       1167.9462     -45418819      -2741.6206     -2719.3551     -2778.918      -9.7753554     -20.008639     -13.709879      15512.448    
    118000   390.95278      0.059          0.27551454     0.27342521     0.279465      -2725.2397      760.23843      760.23843      760.23843      4.3938928e+08  1.4436951     -45395788      -45395788       1164.1906     -45394624      -2719.117      -2698.497      -2758.1052     -10.429979     -19.871243     -14.387644      15500.203    
    119000   389.50547      0.0595         0.27315382     0.27146289     0.27726937    -2703.795       760.59737      760.59737      760.59737      4.4001194e+08  1.4416521     -45371745      -45371745       1159.8808     -45370585      -2695.8187     -2679.1304     -2736.4359     -11.428487     -18.886046     -13.963511      15512.57     
    120000   388.00959      0.06           0.27093404     0.26950173     0.27500894    -2682.6045      760.95631      760.95631      760.95631      4.4063519e+08  1.439613      -45347867      -45347867       1155.4263     -45346712      -2673.911      -2659.7753     -2714.1272     -11.928946     -17.623585     -13.553948      15514.718    
    121000   386.58974      0.0605         0.26882906     0.26739087     0.27275639    -2661.3252      761.31525      761.31525      761.31525      4.4125902e+08  1.4375777     -45324162      -45324162       1151.1982     -45323011      -2653.1366     -2638.9427     -2691.8963     -12.189767     -16.791751     -13.956603      15424.019    
    122000   385.24643      0.061          0.26669663     0.26511374     0.27056904    -2639.623       761.6742       761.6742       761.6742       4.4188344e+08  1.4355463     -45300634      -45300634       1147.1981     -45299487      -2632.0911     -2616.4692     -2670.3088     -12.661482     -16.693168     -14.668721      15501.87     
    123000   383.87401      0.0615         0.26447044     0.26278771     0.26841334    -2617.5557      762.03314      762.03314      762.03314      4.4250845e+08  1.4335187     -45277276      -45277276       1143.1112     -45276133      -2610.1203     -2593.513      -2649.0337     -12.817823     -17.037634     -15.315294      15505.816    
    124000   382.37183      0.062          0.26228545     0.26056793     0.26623521    -2595.8996      762.39208      762.39208      762.39208      4.4313406e+08  1.4314949     -45254078      -45254078       1138.638      -45252940      -2588.5561     -2571.6056     -2627.5372     -12.780032     -16.773963     -15.85267       15525.969    
    125000   380.65386      0.0625         0.26022055     0.25848623     0.2639817     -2574.8449      762.75102      762.75102      762.75102      4.4376025e+08  1.4294749     -45231042      -45231042       1133.5222     -45229909      -2568.1771     -2551.0607     -2605.2968     -13.061985     -15.581595     -16.099124      15423.64     
    126000   378.82935      0.063          0.25808893     0.25649219     0.26176161    -2553.969       763.10996      763.10996      763.10996      4.4438703e+08  1.4274587     -45208173      -45208173       1128.0891     -45207045      -2547.1397     -2531.3811     -2583.3862     -13.628545     -14.316919     -16.855671      15511.921    
    127000   377.20056      0.0635         0.25580117     0.25455032     0.25955832    -2532.8063      763.4689       763.4689       763.4689       4.450144e+08   1.4254463     -45185471      -45185471       1123.2388     -45184348      -2524.5612     -2512.2163     -2561.6415     -13.886809     -14.048201     -18.304901      15468.811    
    128000   375.89424      0.064          0.25344257     0.25255336     0.25735784    -2511.2386      763.82785      763.82785      763.82785      4.4564236e+08  1.4234377     -45162938      -45162938       1119.3489     -45161819      -2501.2836     -2492.5079     -2539.9244     -13.766509     -14.33296      -19.195175      15483.102    
    129000   374.71151      0.0645         0.25132982     0.25047095     0.25530419    -2490.6817      764.18679      764.18679      764.18679      4.4627091e+08  1.4214329     -45140572      -45140572       1115.8269     -45139456      -2480.4324     -2471.9561     -2519.6565     -13.694271     -14.266908     -19.366997      15491.105    
    130000   373.31879      0.065          0.24950267     0.24826206     0.25332433    -2470.8909      764.54573      764.54573      764.54573      4.4690005e+08  1.4194318     -45118367      -45118367       1111.6796     -45117255      -2462.3999     -2450.156      -2500.1168     -13.638177     -14.122551     -18.99996       15514.919    
    131000   372.0631       0.0655         0.24766727     0.24612902     0.25114541    -2450.6677      764.90467      764.90467      764.90467      4.4752978e+08  1.4174345     -45096320      -45096320       1107.9404     -45095212      -2444.2859     -2429.1046     -2478.6125     -14.32059      -14.271769     -17.907548      15465.025    
    132000   370.83096      0.066          0.24561297     0.24423657     0.24891234    -2430.3376      765.26361      765.26361      765.26361      4.481601e+08   1.4154409     -45074433      -45074433       1104.2713     -45073328      -2424.0115     -2410.4275     -2456.5738     -15.12926      -14.667376     -17.503371      15497.024    
    133000   369.27285      0.0665         0.24337038     0.24236265     0.24677585    -2409.7668      765.62255      765.62255      765.62255      4.4879102e+08  1.413451      -45052703      -45052703       1099.6315     -45051603      -2401.8789     -2391.9334     -2435.4883     -15.378785     -14.746541     -19.087081      15480.07     
    134000   367.57228      0.067          0.24127488     0.24045489     0.24478826    -2390.0585      765.9815       765.9815       765.9815       4.4942253e+08  1.4114649     -45031131      -45031131       1094.5675     -45030037      -2381.198      -2373.1052     -2415.8723     -15.129303     -14.244436     -20.364616      15483.388    
    135000   365.83981      0.0675         0.23952353     0.23862066     0.24294177    -2372.1884      766.34044      766.34044      766.34044      4.5005462e+08  1.4094825     -45009707      -45009707       1089.4085     -45008617      -2363.9134     -2355.0028     -2397.6489     -14.431527     -13.033472     -20.27686       15482.955    
    136000   364.00284      0.068          0.23790076     0.23676914     0.24118565    -2354.9817      766.69938      766.69938      766.69938      4.5068732e+08  1.4075039     -44988413      -44988413       1083.9383     -44987329      -2347.898      -2336.7298     -2380.3173     -13.992128     -11.956736     -19.687638      15502.536    
    137000   362.57516      0.0685         0.23614843     0.2348388      0.23933787    -2336.7879      767.05832      767.05832      767.05832      4.513206e+08   1.4055289     -44967254      -44967254       1079.6869     -44966174      -2330.6038     -2317.6788     -2362.0811     -14.767027     -12.220485     -19.523768      15503.833    
    138000   361.85202      0.069          0.23425061     0.23294959     0.23735827    -2317.8171      767.41726      767.41726      767.41726      4.5195448e+08  1.4035576     -44946251      -44946251       1077.5335     -44945174      -2311.8737     -2299.0337     -2342.544      -16.609573     -13.150091     -19.68009       15481.856    
    139000   361.13824      0.0695         0.23235959     0.23122995     0.23540109    -2299.5004      767.7762       767.7762       767.7762       4.5258895e+08  1.40159       -44925401      -44925401       1075.408      -44924325      -2293.2108     -2282.0622     -2323.2281     -17.937408     -13.850114     -19.701532      15502.88     
    140000   359.88959      0.07           0.23061353     0.22958028     0.23350084    -2282.078       768.13515      768.13515      768.13515      4.5322401e+08  1.3996261     -44904677      -44904677       1071.6897     -44903606      -2275.9786     -2265.7812     -2304.4741     -17.464607     -13.970759     -19.227437      15487.561    
    141000   358.39885      0.0705         0.22904314     0.2279367      0.23174364    -2265.7241      768.49409      768.49409      768.49409      4.5385967e+08  1.3976658     -44884079      -44884079       1067.2506     -44883012      -2260.4801     -2249.5603     -2287.1319     -15.817326     -13.497799     -18.710431      15482.032    
    142000   356.92599      0.071          0.22750695     0.22627046     0.23017433    -2250.0263      768.85303      768.85303      768.85303      4.5449592e+08  1.3957092     -44863614      -44863614       1062.8647     -44862551      -2245.319      -2233.1158     -2271.644      -15.063949     -12.730381     -18.915613      15497.215    
    143000   355.60838      0.0715         0.2258341      0.2245704      0.22866696    -2233.9714      769.21197      769.21197      769.21197      4.5513277e+08  1.3937562     -44843282      -44843282       1058.941      -44842223      -2228.8093     -2216.3375     -2256.7674     -15.717875     -12.807794     -19.599474      15510.279    
    144000   354.58538      0.072          0.22406898     0.22288115     0.22699365    -2217.1026      769.57091      769.57091      769.57091      4.5577021e+08  1.3918069     -44823076      -44823076       1055.8947     -44822020      -2211.3889     -2199.6659     -2240.2531     -16.841728     -13.537921     -19.673112      15505.95     
    145000   353.7349       0.0725         0.22240613     0.22130471     0.22514854    -2200.3763      769.92985      769.92985      769.92985      4.5640824e+08  1.3898613     -44802995      -44802995       1053.3621     -44801941      -2194.9778     -2184.1077     -2222.0434     -17.086614     -13.591968     -19.058106      15459.4      
    146000   352.7084       0.073          0.22090978     0.21987317     0.22334412    -2184.8082      770.2888       770.2888       770.2888       4.5704687e+08  1.3879192     -44783038      -44783038       1050.3054     -44781988      -2180.2101     -2169.9794     -2204.2351     -16.17419      -12.962131     -18.404396      15498.779    
    147000   351.33335      0.0735         0.21952179     0.2186116      0.22179012    -2170.9796      770.64774      770.64774      770.64774      4.576861e+08   1.3859808     -44763193      -44763193       1046.2107     -44762147      -2166.5116     -2157.5287     -2188.8983     -15.398139     -12.460655     -18.421481      15478.044    
    148000   349.85933      0.074          0.21818823     0.21734514     0.22046605    -2158.0703      771.00668      771.00668      771.00668      4.5832592e+08  1.3840459     -44743455      -44743455       1041.8213     -44742413      -2153.3505     -2145.0298     -2175.8307     -15.698974     -12.820227     -18.635462      15466.83     
    149000   348.71672      0.0745         0.21685179     0.21589556     0.21907772    -2144.3378      771.36562      771.36562      771.36562      4.5896634e+08  1.3821147     -44723825      -44723825       1038.4189     -44722787      -2140.1608     -2130.7235     -2162.129      -16.064382     -13.270702     -18.01183       15457.228    
    150000   347.94551      0.075          0.21549742     0.2143356      0.21754902    -2129.7213      771.72456      771.72456      771.72456      4.5960736e+08  1.3801871     -44704303      -44704303       1036.1223     -44703267      -2126.7942     -2115.3279     -2147.0418     -15.548014     -13.254823     -17.392683      14972.766    
    151000   347.40844      0.0755         0.21408746     0.21287107     0.2160293     -2115.2655      772.0835       772.0835       772.0835       4.6024897e+08  1.378263      -44684888      -44684888       1034.523      -44683853      -2112.8789     -2100.8741     -2132.0434     -14.308982     -13.027559     -17.605195      15455.522    
    152000   346.63381      0.076          0.21275408     0.21165751     0.21478083    -2102.7796      772.44245      772.44245      772.44245      4.6089117e+08  1.3763426     -44665567      -44665567       1032.2163     -44664535      -2099.7195     -2088.8972     -2119.722      -13.420133     -12.768735     -18.161309      15497.376    
    153000   345.37436      0.0765         0.21148559     0.21053497     0.21367255    -2091.2677      772.80139      772.80139      772.80139      4.6153398e+08  1.3744256     -44646335      -44646335       1028.4659     -44645307      -2087.2004     -2077.8186     -2108.7842     -13.850743     -12.280871     -17.91628       15524.758    
    154000   344.2475       0.077          0.21019133     0.20930479     0.21242668    -2078.8644      773.16033      773.16033      773.16033      4.6217738e+08  1.3725123     -44627202      -44627202       1025.1103     -44626177      -2074.4271     -2065.6777     -2096.4883     -14.75905      -11.385987     -16.526188      15466.519    
    155000   343.42051      0.0775         0.20896555     0.20809771     0.21103288    -2066.2756      773.51927      773.51927      773.51927      4.6282138e+08  1.3706025     -44608170      -44608170       1022.6476     -44607147      -2062.3296     -2053.7647     -2082.7326     -15.00831      -10.24603      -15.432702      15501.017    
    156000   342.26649      0.078          0.20790208     0.20701746     0.20964312    -2054.6514      773.87821      773.87821      773.87821      4.6346598e+08  1.3686962     -44589222      -44589222       1019.2112     -44588203      -2051.834      -2043.1035     -2069.0167     -14.757617     -9.5527774     -15.265699      15498.315    
    157000   340.7202       0.0785         0.20685658     0.20587053     0.20832167    -2043.0916      774.23715      774.23715      774.23715      4.6411118e+08  1.3667935     -44570353      -44570353       1014.6066     -44569338      -2041.5157     -2031.7842     -2055.975      -14.650625     -10.235987     -15.755765      15456.666    
    158000   339.39271      0.079          0.20573662     0.20460935     0.20717205    -2031.4763      774.5961       774.5961       774.5961       4.6475697e+08  1.3648943     -44551568      -44551568       1010.6535     -44550558      -2030.4625     -2019.3372     -2044.6292     -13.929783     -11.21673      -16.621673      15491.972    
    159000   338.54928      0.0795         0.20461923     0.2033744      0.20619163    -2020.5124      774.95504      774.95504      774.95504      4.6540336e+08  1.3629986     -44532871      -44532871       1008.1419     -44531863      -2019.4347     -2007.1492     -2034.9532     -12.902551     -11.450363     -16.723601      15525.366    
    160000   338.09066      0.08           0.20352308     0.20224584     0.20514006    -2009.7343      775.31398      775.31398      775.31398      4.6605036e+08  1.3611064     -44514257      -44514257       1006.7763     -44513250      -2008.6166     -1996.0112     -2024.575      -12.693255     -11.043894     -15.219891      15480.902    
    161000   337.70562      0.0805         0.20246722     0.20125043     0.20396626    -1999.1246      775.67292      775.67292      775.67292      4.6669795e+08  1.3592177     -44495724      -44495724       1005.6297     -44494718      -1998.1961     -1986.1873     -2012.9905     -12.793839     -10.750724     -13.73005       15521.679    
    162000   337.15441      0.081          0.20140398     0.20036599     0.20283009    -1988.9795      776.03186      776.03186      776.03186      4.6734614e+08  1.3573326     -44477270      -44477270       1003.9883     -44476266      -1987.7027     -1977.4586     -2001.7773     -12.65667      -10.792085     -13.652574      15467.044    
    163000   336.55122      0.0815         0.20031319     0.19949278     0.201813      -1979.1725      776.3908       776.3908       776.3908       4.6799493e+08  1.3554509     -44458894      -44458894       1002.1921     -44457892      -1976.9374     -1968.8407     -1991.7395     -12.504976     -11.017625     -14.201371      15499.336    
    164000   336.22961      0.082          0.19932603     0.19852495     0.20090634    -1969.7584      776.74975      776.74975      776.74975      4.6864432e+08  1.3535726     -44440592      -44440592       1001.2344     -44439590      -1967.195      -1959.2889     -1982.7914     -12.468891     -10.954197     -14.558115      15507.991    
    165000   335.76122      0.0825         0.19861638     0.19754761     0.20003119    -1961.3297      777.10869      777.10869      777.10869      4.6929431e+08  1.3516979     -44422348      -44422348       999.83956     -44421348      -1960.1913     -1949.6434     -1974.1544     -12.027107     -10.626135     -14.285228      15505.447    
    166000   334.84282      0.083          0.19802148     0.19660824     0.19920486    -1953.5639      777.46763      777.46763      777.46763      4.6994491e+08  1.3498266     -44404150      -44404150       997.10474     -44403153      -1954.3201     -1940.3724     -1965.9991     -11.476118     -10.240885     -12.930067      15504.257    
    167000   333.89795      0.0835         0.19717018     0.19571348     0.1983523     -1945.0151      777.82657      777.82657      777.82657      4.705961e+08   1.3479588     -44386006      -44386006       994.29109     -44385012      -1945.9184     -1931.5418     -1957.585      -11.08341      -9.8161124     -11.964067      15516.819    
    168000   333.45391      0.084          0.19609499     0.19484947     0.19730158    -1935.179       778.18551      778.18551      778.18551      4.712479e+08   1.3460944     -44367939      -44367939       992.9688      -44366946      -1935.3071     -1923.0147     -1947.2152     -11.178343     -9.8836439     -11.950271      15487.736    
    169000   332.98957      0.0845         0.19509168     0.19402042     0.19617963    -1925.4601      778.54445      778.54445      778.54445      4.7190029e+08  1.3442334     -44349954      -44349954       991.58607     -44348963      -1925.4051     -1914.8326     -1936.1424     -11.676267     -10.195341     -12.573213      15490.689    
    170000   332.00882      0.085          0.19418016     0.19320237     0.19511407    -1916.2648      778.9034       778.9034       778.9034       4.7255329e+08  1.3423759     -44332035      -44332035       988.66559     -44331046      -1916.4092     -1906.7591     -1925.6262     -11.449039     -10.128162     -12.534329      15442.377    
    171000   331.01359      0.0855         0.19330952     0.19244133     0.19424129    -1908.0258      779.26234      779.26234      779.26234      4.7320689e+08  1.3405218     -44314165      -44314165       985.70195     -44313179      -1907.8167     -1899.2483     -1917.0125     -10.402091     -9.9197609     -11.299008      15503.156    
    172000   330.46305      0.086          0.19256924     0.19172779     0.19356654    -1901.0233      779.62128      779.62128      779.62128      4.7386109e+08  1.3386711     -44296349      -44296349       984.06252     -44295365      -1900.5106     -1892.2062     -1910.3533     -9.8489037     -10.093476     -10.264251      15498.365    
    173000   330.20476      0.0865         0.19193127     0.19099613     0.19295393    -1894.5023      779.98022      779.98022      779.98022      4.745159e+08   1.3368238     -44278584      -44278584       983.29339     -44277601      -1894.2143     -1884.9853     -1904.3072     -9.7415515     -9.9622977     -10.235137      15502.094    
    174000   329.95226      0.087          0.19127446     0.19020521     0.19220047    -1887.2609      780.33916      780.33916      780.33916      4.7517131e+08  1.3349799     -44260867      -44260867       982.5415      -44259885      -1887.7321     -1877.1795     -1896.8711     -9.7712466     -9.327987      -10.581841      15490.258    
    175000   329.97275      0.0875         0.19052276     0.18937        0.1913113     -1879.1152      780.6981       780.6981       780.6981       4.7582732e+08  1.3331394     -44243209      -44243209       982.60251     -44242226      -1880.3134     -1868.9366     -1888.0957     -10.635838     -8.7040769     -10.814157      15488.514    
    176000   329.91642      0.088          0.18980461     0.18860115     0.19055914    -1871.749       781.05705      781.05705      781.05705      4.7648394e+08  1.3313022     -44225608      -44225608       982.43477     -44224625      -1873.2259     -1861.3487     -1880.6725     -11.596769     -8.6900521     -11.136508      15520.834    
    177000   329.20543      0.0885         0.18923106     0.18791148     0.18992465    -1865.506       781.41599      781.41599      781.41599      4.7714116e+08  1.3294685     -44208048      -44208048       980.31756     -44207068      -1867.5653     -1854.5421     -1874.4106     -11.161847     -9.2774015     -11.386916      15459.157    
    178000   328.43278      0.089          0.18860322     0.18727208     0.18925295    -1859.1274      781.77493      781.77493      781.77493      4.7779898e+08  1.3276381     -44190526      -44190526       978.01673     -44189548      -1861.369      -1848.2317     -1867.7814     -9.7915731     -9.5702387     -10.933678      15522.663    
    179000   328.17546      0.0895         0.18785059     0.18664414     0.18849766    -1852.1009      782.13387      782.13387      782.13387      4.7845741e+08  1.3258111     -44173051      -44173051       977.25048     -44172074      -1853.9412     -1842.0344     -1860.3273     -8.8528762     -9.3481746     -9.7877558      15504.492    
    180000   328.19954      0.09           0.18704278     0.18603188     0.1876902     -1844.773       782.49281      782.49281      782.49281      4.7911644e+08  1.3239874     -44155632      -44155632       977.32218     -44154655      -1845.9687     -1835.992      -1852.3582     -8.7324582     -9.0423948     -8.7621913      15470.816    
    181000   328.09218      0.0905         0.18627969     0.1853536      0.18687426    -1837.347       782.85175      782.85175      782.85175      4.7977607e+08  1.3221671     -44138267      -44138267       977.0025      -44137290      -1838.4376     -1829.2978     -1844.3055     -8.9639477     -8.8078131     -8.0167589      15494.91     
    182000   327.72546      0.091          0.18557657     0.18472063     0.18618962    -1830.6993      783.2107       783.2107       783.2107       4.8043632e+08  1.3203501     -44120946      -44120946       975.91045     -44119970      -1831.4984     -1823.0509     -1837.5486     -9.4076722     -8.9539379     -7.5777642      15510.282    
    183000   327.09729      0.0915         0.1849566      0.18413716     0.18570653    -1825.1511      783.56964      783.56964      783.56964      4.8109716e+08  1.3185364     -44103665      -44103665       974.03987     -44102691      -1825.3797     -1817.2925     -1832.781      -10.166968     -9.402638      -7.5088228      15466.12     
    184000   326.62107      0.092          0.18441257     0.18349872     0.18520914    -1819.6247      783.92858      783.92858      783.92858      4.8175862e+08  1.3167261     -44086419      -44086419       972.62178     -44085446      -1820.0105     -1810.9916     -1827.8721     -10.531253     -9.4484688     -8.2254669      15502.298    
    185000   326.66065      0.0925         0.18389614     0.18290186     0.18454731    -1813.785       784.28752      784.28752      784.28752      4.8242068e+08  1.314919      -44069212      -44069212       972.73963     -44068239      -1814.9138     -1805.101      -1821.3403     -9.8757737     -9.3769619     -9.0092541      15490.292    
    186000   326.81231      0.093          0.18335627     0.18235215     0.18385463    -1807.9219      784.64646      784.64646      784.64646      4.8308334e+08  1.3131153     -44052046      -44052046       973.19125     -44051073      -1809.5857     -1799.6758     -1814.5041     -8.9563535     -9.2627654     -9.2579833      15494.153    
    187000   326.51221      0.0935         0.18288333     0.18173088     0.18321341    -1802.2127      785.0054       785.0054       785.0054       4.8374662e+08  1.3113149     -44034917      -44034917       972.2976      -44033945      -1804.9181     -1793.5443     -1808.1758     -8.6714956     -9.1918394     -8.7035388      15513.45     
    188000   326.08194      0.094          0.18240829     0.18110003     0.18254522    -1796.3765      785.36435      785.36435      785.36435      4.8441049e+08  1.3095177     -44017827      -44017827       971.01634     -44016856      -1800.2299     -1787.3183     -1801.5813     -8.8855866     -9.1483319     -7.665474       15499.671    
    189000   325.92107      0.0945         0.18180848     0.18058821     0.18186278    -1790.4745      785.72329      785.72329      785.72329      4.8507498e+08  1.3077239     -44000778      -44000778       970.53728     -43999808      -1794.3102     -1782.267      -1794.8461     -8.8694744     -8.5127827     -6.9708233      15493.001    
    190000   325.71161      0.095          0.18102379     0.18011032     0.18129389    -1784.4494      786.08223      786.08223      786.08223      4.8574007e+08  1.3059333     -43983768      -43983768       969.91356     -43982798      -1786.5659     -1777.5506     -1789.2316     -8.4908483     -7.4983318     -6.7597496      15509.209    
    191000   325.31567      0.0955         0.1801716      0.1795212      0.18079864    -1778.0786      786.44117      786.44117      786.44117      4.8640578e+08  1.304146      -43966796      -43966796       968.73452     -43965828      -1778.1554     -1771.7365     -1784.3438     -8.132694      -7.2983402     -7.186616       15474.65     
    192000   325.31341      0.096          0.17954047     0.17887673     0.18024476    -1772.0601      786.80011      786.80011      786.80011      4.8707208e+08  1.3023619     -43949866      -43949866       968.72779     -43948897      -1771.9266     -1765.376      -1778.8775     -8.0657836     -7.8207567     -7.5662559      15481.942    
    193000   325.63259      0.0965         0.17920703     0.17835796     0.17971299    -1767.5072      787.15905      787.15905      787.15905      4.87739e+08    1.3005811     -43932974      -43932974       969.67826     -43932004      -1768.6359     -1760.2562     -1773.6293     -8.9704892     -8.5062553     -7.1323081      15511.295    
    194000   325.46665      0.097          0.17890882     0.17790234     0.17918515    -1763.2907      787.518        787.518        787.518        4.8840653e+08  1.2988036     -43916112      -43916112       969.18412     -43915143      -1765.6928     -1755.7596     -1768.4199     -10.138728     -9.1052798     -6.0751609      15465.472    
    195000   325.09498      0.0975         0.17838099     0.17733161     0.17858891    -1757.7153      787.87694      787.87694      787.87694      4.8907466e+08  1.2970292     -43899282      -43899282       968.07735     -43898314      -1760.4835     -1750.1269     -1762.5355     -9.984494      -9.4172215     -5.1162368      15502.524    
    196000   325.18874      0.098          0.17769455     0.17664254     0.17795629    -1751.1091      788.23588      788.23588      788.23588      4.8974341e+08  1.2952581     -43882494      -43882494       968.35653     -43881525      -1753.7088     -1743.3263     -1756.2921     -9.1877127     -9.2676125     -5.5618308      15530.491    
    197000   325.28222      0.0985         0.17707896     0.17604914     0.17739678    -1745.2912      788.59482      788.59482      788.59482      4.9041276e+08  1.2934903     -43865743      -43865743       968.63491     -43864775      -1747.6335     -1737.47       -1750.7701     -8.972964      -8.5518119     -7.2232713      15497.422    
    198000   325.06346      0.099          0.17655364     0.17562501     0.17688998    -1740.5005      788.95376      788.95376      788.95376      4.9108272e+08  1.2917256     -43849024      -43849024       967.98346     -43848056      -1742.449      -1733.2841     -1745.7684     -8.6020654     -7.845915      -8.453735       15490.191    
    199000   324.91381      0.0995         0.17606823     0.17525736     0.17635887    -1735.9469      789.3127       789.3127       789.3127       4.9175329e+08  1.2899642     -43832342      -43832342       967.53784     -43831375      -1737.6583     -1729.6556     -1740.5267     -7.8840036     -7.5616484     -7.9904354      15480.58     
    200000   324.81263      0.1            0.17557589     0.17477237     0.17581455    -1730.9411      789.67165      789.67165      789.67165      4.9242448e+08  1.2882059     -43815701      -43815701       967.23654     -43814734      -1732.7993     -1724.8692     -1735.1547     -8.0284895     -7.8874517     -6.6145033      15098.311    
    201000   324.34776      0.1005         0.17511517     0.1741865      0.17525121    -1725.6448      790.03059      790.03059      790.03059      4.9309627e+08  1.2864509     -43799088      -43799088       965.85223     -43798122      -1728.2524     -1719.0871     -1729.595      -8.9522809     -8.1181008     -5.9850699      15418.14     
    202000   323.82743      0.101          0.17464107     0.17362877     0.17466074    -1720.3079      790.38953      790.38953      790.38953      4.9376867e+08  1.284699      -43782499      -43782499       964.3028      -43781535      -1723.5733     -1713.5827     -1723.7675     -9.5162283     -7.9724092     -5.7615507      15482.149    
    203000   323.74074      0.1015         0.17413395     0.17312664     0.17414993    -1715.3072      790.74847      790.74847      790.74847      4.9444169e+08  1.2829503     -43765948      -43765948       964.04464     -43764984      -1718.5685     -1708.6271     -1718.7261     -9.1483164     -7.9233997     -5.4000432      15488.838    
    204000   323.88487      0.102          0.17368453     0.17267847     0.17373134    -1710.9773      791.10741      791.10741      791.10741      4.9511532e+08  1.2812048     -43749431      -43749431       964.47385     -43748466      -1714.133      -1704.204      -1714.595      -8.4847563     -8.3089429     -5.4019316      15456.412    
    205000   323.79375      0.1025         0.17328614     0.17228113     0.17328182    -1706.8808      791.46635      791.46635      791.46635      4.9578955e+08  1.2794625     -43732937      -43732937       964.2025      -43731973      -1710.2012     -1700.2825     -1710.1586     -8.2968918     -8.2633934     -5.7404864      15473.975    
    206000   323.46876      0.103          0.17279696     0.17184127     0.1727959     -1702.226       791.8253       791.8253       791.8253       4.964644e+08   1.2777233     -43716466      -43716466       963.23474     -43715503      -1705.3734     -1695.9415     -1705.363      -8.5760132     -7.3797049     -5.6135434      15487.942    
    207000   323.33517      0.1035         0.17221587     0.17131982     0.17229585    -1696.9538      792.18424      792.18424      792.18424      4.9713986e+08  1.2759873     -43700026      -43700026       962.83694     -43699063      -1699.6384     -1690.7951     -1700.4278     -8.8155001     -6.3718746     -5.0440791      15433.071    
    208000   323.51164      0.104          0.17166419     0.17080551     0.17180991    -1691.8484      792.54318      792.54318      792.54318      4.9781594e+08  1.2742544     -43683625      -43683625       963.36241     -43682661      -1694.1938     -1685.7194     -1695.6319     -8.5858618     -6.5927011     -4.9365589      15439.161    
    209000   323.73357      0.1045         0.17116011     0.17032333     0.1713417     -1687.0635      792.90212      792.90212      792.90212      4.9849263e+08  1.2725246     -43667258      -43667258       964.02329     -43666294      -1689.2189     -1680.9606     -1691.0111     -8.2315485     -7.3060764     -5.6958003      15448.067    
    210000   323.6024       0.105          0.17067014     0.16987459     0.17083144    -1682.2968      793.26106      793.26106      793.26106      4.9916993e+08  1.270798      -43650925      -43650925       963.6327      -43649962      -1684.3833     -1676.5318     -1685.9752     -7.9594347     -7.5348256     -6.7533175      15473.901    
    211000   323.21931      0.1055         0.17021706     0.16942461     0.1702778     -1677.5046      793.62         793.62         793.62         4.9984784e+08  1.2690745     -43634624      -43634624       962.49191     -43633662      -1679.9118     -1672.0909     -1680.5112     -8.0937485     -7.3653665     -6.7020351      15471.198    
    212000   322.98552      0.106          0.16977498     0.16894964     0.16980965    -1672.9476      793.97895      793.97895      793.97895      5.0052636e+08  1.2673541     -43618348      -43618348       961.79573     -43617386      -1675.5488     -1667.4033     -1675.8909     -8.4793287     -7.162737      -5.6440095      15449.683    
    213000   322.96245      0.1065         0.16936584     0.16852593     0.16936969    -1668.7605      794.33789      794.33789      794.33789      5.012055e+08   1.2656368     -43602093      -43602093       961.72704     -43601131      -1671.5109     -1663.2216     -1671.5489     -8.8589213     -6.8962464     -4.6566788      15460.341    
    214000   323.08895      0.107          0.16898545     0.1681368      0.16897466    -1664.9294      794.69683      794.69683      794.69683      5.0188526e+08  1.2639226     -43585863      -43585863       962.10371     -43584901      -1667.7567     -1659.3812     -1667.6502     -8.733936      -6.6803472     -4.2801971      15428.838    
    215000   323.18047      0.1075         0.16854512     0.16771357     0.16857916    -1660.7874      795.05577      795.05577      795.05577      5.0256563e+08  1.2622115     -43569665      -43569665       962.37625     -43568703      -1663.411      -1655.2043     -1663.7469     -8.0899529     -6.9594408     -4.8185129      15450.667    
    216000   323.26349      0.108          0.16813802     0.1672224      0.16812846    -1656.3496      795.41471      795.41471      795.41471      5.0324661e+08  1.2605035     -43553500      -43553500       962.62347     -43552537      -1659.3932     -1650.3568     -1659.2989     -7.2902664     -8.0757571     -5.2110839      15407.681    
    217000   323.33597      0.1085         0.16770192     0.16668018     0.16765239    -1651.5651      795.77365      795.77365      795.77365      5.0392821e+08  1.2587986     -43537365      -43537365       962.83931     -43536402      -1655.0893     -1645.0055     -1654.6005     -6.8730572     -8.9589055     -5.1340777      15446.051    
[...]
   3017000   320.93081      1.5085         0.015377094    0.015395126    0.015328116   -151.65831      1800.8103      1800.8103      1800.8103      5.8398796e+09  0.10862281    -14788790      -14788790       955.67714     -14787834      -151.76012     -151.93808     -151.27675     -0.11591814    -0.13313761     0.39178646     14370.866    
   3018000   320.92292      1.509          0.015369521    0.015380396    0.01531043    -151.52676      1801.1692      1801.1692      1801.1692      5.8433724e+09  0.10855788    -14781201      -14781201       955.65366     -14780245      -151.68537     -151.79271     -151.10219     -0.11132245    -0.14157085     0.39722301     14355.527    
   3019000   320.90621      1.5095         0.015360171    0.015366699    0.015295703   -151.40249      1801.5282      1801.5282      1801.5282      5.8468665e+09  0.10849301    -14773616      -14773616       955.60389     -14772660      -151.5931      -151.65752     -150.95685     -0.10843109    -0.16314683     0.4188071      14401.379    
   3020000   320.89188      1.51           0.015348649    0.015356017    0.015287884   -151.30372      1801.8871      1801.8871      1801.8871      5.850362e+09   0.10842818    -14766033      -14766033       955.56123     -14765077      -151.47939     -151.5521      -150.87968     -0.11688933    -0.18262503     0.43628497     14376.176    
   3021000   320.91282      1.5105         0.015335569    0.015345774    0.01528358    -151.21284      1802.2461      1802.2461      1802.2461      5.853859e+09   0.10836341    -14758452      -14758452       955.62358     -14757496      -151.3503      -151.45101     -150.83721     -0.13108639    -0.19586472     0.44059756     14392.376    
   3022000   320.9634       1.511          0.015323694    0.015334858    0.015278003   -151.11952      1802.605       1802.605       1802.605       5.8573573e+09  0.10829869    -14750873      -14750873       955.77421     -14749917      -151.2331      -151.34328     -150.78217     -0.14366736    -0.2019185      0.43308948     14402.607    
   3023000   321.00343      1.5115         0.015314913    0.015324617    0.01527046    -151.03212      1802.9639      1802.9639      1802.9639      5.860857e+09   0.10823402    -14743295      -14743295       955.89341     -14742340      -151.14644     -151.24222     -150.70772     -0.14908118    -0.21015234     0.4193672      14394.561    
   3024000   321.02383      1.512          0.015307985    0.015316088    0.015261785   -150.95273      1803.3229      1803.3229      1803.3229      5.8643581e+09  0.10816941    -14735719      -14735719       955.95413     -14734763      -151.07806     -151.15803     -150.6221      -0.14960025    -0.22242474     0.40821715     14390.531    
   3025000   321.02513      1.5125         0.015300827    0.01530899     0.015252146   -150.87413      1803.6818      1803.6818      1803.6818      5.8678606e+09  0.10810484    -14728144      -14728144       955.95803     -14727188      -151.00742     -151.08798     -150.52697     -0.15278513    -0.2324616      0.40094136     14382.397    
   3026000   321.00577      1.513          0.015291256    0.015301265    0.015241529   -150.7823       1804.0408      1804.0408      1804.0408      5.8713645e+09  0.10804033    -14720569      -14720569       955.90038     -14719613      -150.91297     -151.01175     -150.4222      -0.15391384    -0.23117009     0.39229768     14412.27     
   3027000   320.97609      1.5135         0.01527852     0.015292619    0.015229513   -150.67243      1804.3997      1804.3997      1804.3997      5.8748698e+09  0.10797586    -14712997      -14712997       955.81198     -14712041      -150.78727     -150.92641     -150.30361     -0.14963013    -0.22789842     0.38160148     14390.57     
   3028000   320.95734      1.514          0.015264789    0.015283102    0.015217034   -150.5549       1804.7587      1804.7587      1804.7587      5.8783765e+09  0.10791145    -14705427      -14705427       955.75614     -14704472      -150.65175     -150.83249     -150.18044     -0.1427085     -0.23454811     0.38566879     14375.778    
   3029000   320.96709      1.5145         0.015251372    0.015272116    0.0152058     -150.43766      1805.1176      1805.1176      1805.1176      5.8818846e+09  0.10784709    -14697861      -14697861       955.78519     -14696905      -150.51934     -150.72406     -150.06958     -0.14070163    -0.24047703     0.40539425     14385.218    
   3030000   321.0083       1.515          0.015239352    0.01526153     0.015196911   -150.33405      1805.4765      1805.4765      1805.4765      5.885394e+09   0.10778278    -14690298      -14690298       955.9079      -14689342      -150.40071     -150.61959     -149.98185     -0.14705976    -0.23201109     0.42794376     14380.876    
   3031000   321.05828      1.5155         0.015229979    0.015251797    0.015188291   -150.24284      1805.8355      1805.8355      1805.8355      5.8889049e+09  0.10771852    -14682736      -14682736       956.05673     -14681780      -150.30821     -150.52354     -149.89678     -0.14668351    -0.20622505     0.43920098     14396.05     
   3032000   321.08725      1.516          0.0152234      0.015240332    0.015178571   -150.1515       1806.1944      1806.1944      1806.1944      5.8924172e+09  0.10765431    -14675176      -14675176       956.14299     -14674220      -150.24328     -150.41038     -149.80085     -0.12496941    -0.18440254     0.43988977     14377.247    
   3033000   321.073        1.5165         0.015216022    0.015227918    0.015168655   -150.05377      1806.5534      1806.5534      1806.5534      5.8959309e+09  0.10759016    -14667618      -14667618       956.10057     -14666662      -150.17046     -150.28787     -149.70298     -0.094455601   -0.17792762     0.44040162     14278.562    
   3034000   321.01168      1.517          0.015204027    0.01521722     0.015157733   -149.94319      1806.9123      1806.9123      1806.9123      5.8994459e+09  0.10752605    -14660061      -14660061       955.91798     -14659105      -150.05208     -150.18229     -149.5952      -0.070676058   -0.17374891     0.43324597     14369.6      
   3035000   320.91437      1.5175         0.01518866     0.015207315    0.015145076   -149.81841      1807.2712      1807.2712      1807.2712      5.9029624e+09  0.107462      -14652508      -14652508       955.62818     -14651552      -149.90042     -150.08453     -149.47027     -0.062054518   -0.16716938     0.42271555     14385.932    
   3036000   320.81641      1.518          0.015172923    0.015195341    0.015132722   -149.68661      1807.6302      1807.6302      1807.6302      5.9064802e+09  0.10739799    -14644958      -14644958       955.33648     -14644002      -149.7451      -149.96636     -149.34836     -0.069971466   -0.17075409     0.41830328     14401.761    
   3037000   320.75346      1.5185         0.015160151    0.015180523    0.015121779   -149.55984      1807.9891      1807.9891      1807.9891      5.9099995e+09  0.10733404    -14637411      -14637411       955.14904     -14636456      -149.61906     -149.82012     -149.24035     -0.086767922   -0.18840524     0.41135088     14406.811    
   3038000   320.73694      1.519          0.015150754    0.015166443    0.015111476   -149.44871      1808.3481      1808.3481      1808.3481      5.9135201e+09  0.10727014    -14629867      -14629867       955.09983     -14628912      -149.52631     -149.68115     -149.13868     -0.10244021    -0.21560529     0.39599183     14412.553    
   3039000   320.75589      1.5195         0.015142245    0.015155743    0.015099782   -149.34705      1808.707       1808.707       1808.707       5.9170422e+09  0.10720629    -14622326      -14622326       955.15627     -14621371      -149.44234     -149.57555     -149.02326     -0.10915887    -0.23960557     0.38841879     14407.618    
   3040000   320.79014      1.52           0.015133727    0.015148245    0.01508803    -149.2557       1809.066       1809.066       1809.066       5.9205656e+09  0.10714249    -14614787      -14614787       955.25827     -14613832      -149.35827     -149.50156     -148.90728     -0.10896687    -0.24161984     0.40031917     14392.541    
   3041000   320.81297      1.5205         0.01512622     0.015141279    0.015078288   -149.17604      1809.4249      1809.4249      1809.4249      5.9240905e+09  0.10707874    -14607250      -14607250       955.32624     -14606294      -149.28419     -149.4328      -148.81113     -0.11199748    -0.22580093     0.42554552     14398.546    
   3042000   320.82137      1.521          0.015118649    0.015130975    0.015070459   -149.09148      1809.7838      1809.7838      1809.7838      5.9276167e+09  0.10701504    -14599713      -14599713       955.35126     -14598757      -149.20946     -149.33111     -148.73387     -0.12514783    -0.20424778     0.44151335     14406.432    
   3043000   320.84203      1.5215         0.015108484    0.015117428    0.015063611   -148.99094      1810.1428      1810.1428      1810.1428      5.9311444e+09  0.10695139    -14592178      -14592178       955.41279     -14591222      -149.10914     -149.19741     -148.66628     -0.13651842    -0.187115       0.43780171     14399.131    
   3044000   320.89929      1.522          0.015094953    0.015104099    0.015055419   -148.87564      1810.5017      1810.5017      1810.5017      5.9346734e+09  0.10688779    -14584645      -14584645       955.5833      -14583690      -148.97561     -149.06587     -148.58543     -0.14199796    -0.18178317     0.43249928     14384.262    
   3045000   320.97357      1.5225         0.015080911    0.015094303    0.015045512   -148.76462      1810.8607      1810.8607      1810.8607      5.9382038e+09  0.10682424    -14577116      -14577116       955.80448     -14576160      -148.83702     -148.96919     -148.48766     -0.15210591    -0.18675952     0.43709015     14377.622    
   3046000   321.01839      1.523          0.015069711    0.015087598    0.015034807   -148.6705       1811.2196      1811.2196      1811.2196      5.9417357e+09  0.10676075    -14569589      -14569589       955.93795     -14568633      -148.72648     -148.90301     -148.38201     -0.16302497    -0.19778411     0.43879296     14366.081    
   3047000   321.01175      1.5235         0.015061469    0.015080538    0.015023572   -148.5832       1811.5785      1811.5785      1811.5785      5.9452689e+09  0.1066973     -14562064      -14562064       955.91819     -14561108      -148.64514     -148.83334     -148.27113     -0.16655156    -0.20668918     0.42554463     14363.886    
   3048000   320.97858      1.524          0.015053264    0.015069936    0.01501056    -148.47853      1811.9375      1811.9375      1811.9375      5.9488036e+09  0.1066339     -14554540      -14554540       955.8194      -14553584      -148.56416     -148.72871     -148.14271     -0.16148249    -0.20558499     0.40511762     14381.539    
   3049000   320.96925      1.5245         0.015042844    0.015057085    0.01499791    -148.36035      1812.2964      1812.2964      1812.2964      5.9523396e+09  0.10657055    -14547019      -14547019       955.79163     -14546063      -148.46133     -148.60187     -148.01786     -0.14537049    -0.20370274     0.39230861     14346.063    
   3050000   320.99501      1.525          0.0150319      0.01504668     0.014987256   -148.25507      1812.6554      1812.6554      1812.6554      5.9558771e+09  0.10650726    -14539501      -14539501       955.86834     -14538545      -148.35331     -148.49919     -147.91272     -0.12574056    -0.20852489     0.39083041     14007.014    
   3051000   321.02161      1.5255         0.015021918    0.015039407    0.014978357   -148.16904      1813.0143      1813.0143      1813.0143      5.9594159e+09  0.10644401    -14531985      -14531985       955.94753     -14531029      -148.25481     -148.42741     -147.82489     -0.11869776    -0.21447797     0.40485399     14291.635    
   3052000   321.01813      1.526          0.015013358    0.015032076    0.014970975   -148.09247      1813.3733      1813.3733      1813.3733      5.9629562e+09  0.10638081    -14524470      -14524470       955.93716     -14523514      -148.17032     -148.35505     -147.75203     -0.12969115    -0.22453988     0.42982436     14318.729    
   3053000   320.98826      1.5265         0.015005763    0.015022328    0.01496443    -148.01388      1813.7322      1813.7322      1813.7322      5.9664978e+09  0.10631767    -14516956      -14516956       955.84822     -14516000      -148.09536     -148.25885     -147.68744     -0.14733115    -0.23848727     0.45382794     14299.513    
   3054000   320.97171      1.527          0.014996672    0.015010498    0.014958724   -147.92629      1814.0911      1814.0911      1814.0911      5.9700409e+09  0.10625457    -14509444      -14509444       955.79893     -14508488      -148.00565     -148.1421      -147.63113     -0.15632759    -0.24184208     0.45692058     14282.103    
   3055000   321.00229      1.5275         0.014985398    0.01500097     0.014952031   -147.83584      1814.4501      1814.4501      1814.4501      5.9735853e+09  0.10619153    -14501933      -14501933       955.89002     -14500977      -147.89438     -148.04807     -147.56507     -0.14963335    -0.21762478     0.4380053      14317.878    
   3056000   321.07313      1.528          0.014973673    0.014996014    0.014940139   -147.74184      1814.809       1814.809       1814.809       5.9771312e+09  0.10612853    -14494424      -14494424       956.10096     -14493467      -147.77867     -147.99915     -147.44771     -0.14243861    -0.17306782     0.41931496     14329.682    
   3057000   321.15073      1.5285         0.014961178    0.01499232     0.014923727   -147.63459      1815.168       1815.168       1815.168       5.9806784e+09  0.10606558    -14486917      -14486917       956.33203     -14485960      -147.65535     -147.96269     -147.28574     -0.143253      -0.133988       0.40829688     14321.285    
   3058000   321.20175      1.529          0.014947418    0.014983896    0.014906924   -147.50634      1815.5269      1815.5269      1815.5269      5.9842271e+09  0.10600268    -14479413      -14479413       956.48395     -14478456      -147.51955     -147.87956     -147.1199      -0.14232967    -0.11512728     0.3989822      14307.492    
   3059000   321.19514      1.5295         0.014934286    0.014968811    0.014892767   -147.36693      1815.8858      1815.8858      1815.8858      5.9877772e+09  0.10593984    -14471913      -14471913       956.46428     -14470957      -147.38995     -147.73067     -146.98018     -0.13109861    -0.12067307     0.39471393     14322.271    
   3060000   321.12274      1.53           0.014922862    0.014949996    0.014882083   -147.23231      1816.2448      1816.2448      1816.2448      5.9913286e+09  0.10587704    -14464417      -14464417       956.24867     -14463461      -147.2772      -147.54499     -146.87474     -0.11905441    -0.14943673     0.39453063     14284.877    
   3061000   321.02132      1.5305         0.014912973    0.014933186    0.014874354   -147.11905      1816.6037      1816.6037      1816.6037      5.9948815e+09  0.10581429    -14456925      -14456925       955.94667     -14455969      -147.1796      -147.37909     -146.79846     -0.1204134     -0.18303567     0.39434057     14281.712    
   3062000   320.93438      1.531          0.014905335    0.014922679    0.014868284   -147.03939      1816.9627      1816.9627      1816.9627      5.9984358e+09  0.10575159    -14449435      -14449435       955.68779     -14448479      -147.10422     -147.2754      -146.73855     -0.12539537    -0.19640827     0.400051       14249.88     
   3063000   320.87712      1.5315         0.014898887    0.014917497    0.014862818   -146.98314      1817.3216      1817.3216      1817.3216      6.0019915e+09  0.10568894    -14441945      -14441945       955.51726     -14440989      -147.04058     -147.22425     -146.68461     -0.12685642    -0.18387757     0.41543958     14246.345    
   3064000   320.86409      1.532          0.014890913    0.014912236    0.014855923   -146.91692      1817.6806      1817.6806      1817.6806      6.0055485e+09  0.10562634    -14434454      -14434454       955.47848     -14433499      -146.96189     -147.17232     -146.61656     -0.12054483    -0.16153733     0.42921131     14262.984    
   3065000   320.89087      1.5325         0.014880199    0.014901289    0.01484602    -146.81309      1818.0395      1818.0395      1818.0395      6.009107e+09   0.10556379    -14426965      -14426965       955.55821     -14426009      -146.85614     -147.06429     -146.51883     -0.10197561    -0.15509141     0.42525455     14285.574    
   3066000   320.92493      1.533          0.014866639    0.014886137    0.014832512   -146.67419      1818.3984      1818.3984      1818.3984      6.0126669e+09  0.10550129    -14419479      -14419479       955.65963     -14418524      -146.72232     -146.91475     -146.38552     -0.090785269   -0.16870665     0.40629579     14289.935    
   3067000   320.94115      1.5335         0.01485433     0.014873652    0.014818245   -146.54569      1818.7574      1818.7574      1818.7574      6.0162282e+09  0.10543884    -14411998      -14411998       955.70793     -14411043      -146.60084     -146.79153     -146.2447      -0.10689295    -0.19027231     0.39336547     14283.876    
   3068000   320.93623      1.534          0.014845923    0.01486706     0.014806813   -146.45874      1819.1163      1819.1163      1819.1163      6.0197909e+09  0.10537644    -14404520      -14404520       955.69329     -14403564      -146.51787     -146.72647     -146.13188     -0.13604013    -0.20016325     0.39073904     14285.73     
   3069000   320.93013      1.5345         0.014839255    0.014861716    0.014796398   -146.38497      1819.4753      1819.4753      1819.4753      6.0233551e+09  0.10531409    -14397042      -14397042       955.67513     -14396087      -146.45206     -146.67373     -146.0291      -0.14178257    -0.19189219     0.38479047     14257.484    
   3070000   320.94768      1.535          0.014831962    0.014854528    0.014785753   -146.3023       1819.8342      1819.8342      1819.8342      6.0269206e+09  0.10525178    -14389565      -14389565       955.72739     -14388610      -146.38008     -146.60279     -145.92404     -0.1155918     -0.18171606     0.36756058     14265.102    
   3071000   321.00743      1.5355         0.014822816    0.014846146    0.014775033   -146.20937      1820.1931      1820.1931      1820.1931      6.0304875e+09  0.10518953    -14382090      -14382090       955.90532     -14381135      -146.28982     -146.52007     -145.81824     -0.080366421   -0.18118639     0.3523197      14249.584    
   3072000   321.08401      1.536          0.014812786    0.014837099    0.014766139   -146.11736      1820.5521      1820.5521      1820.5521      6.0340558e+09  0.10512732    -14374618      -14374618       956.13334     -14373662      -146.19083     -146.43079     -145.73046     -0.073816667   -0.18608775     0.35307942     14298.133    
   3073000   321.1251       1.5365         0.014802586    0.014825202    0.014758695   -146.02018      1820.911       1820.911       1820.911       6.0376256e+09  0.10506517    -14367147      -14367147       956.25571     -14366190      -146.09017     -146.31337     -145.65699     -0.097513759   -0.197362       0.35899887     14307.422    
   3074000   321.11929      1.537          0.014792852    0.014811641    0.01475096    -145.91809      1821.27        1821.27        1821.27        6.0411967e+09  0.10500306    -14359678      -14359678       956.23841     -14358722      -145.99409     -146.1